100
 Atoms. Timestep: 0
O 5.1294 1.72448 2.89135
O 5.63744 2.20072 3.64923
O 5.1918 3.06665 4.19339
O 4.26433 3.30218 4.67196
O 3.523 2.75216 5.47072
O 2.73181 2.53693 6.27047
O 1.9731 2.52204 7.22162
O 1.1164 1.68409 7.45242
O 0.17217 1.81874 7.9668
O -0.958116 1.99955 8.09671
O -1.91397 1.5157 8.08976
O -2.39089 0.593758 8.51529
O -3.23799 -0.103688 8.76563
O -3.9353 -0.459388 7.90558
O -4.39638 -1.04015 7.03859
O -4.1111 -1.8072 6.19907
O -4.02038 -2.43518 5.29636
O -4.83635 -2.01458 4.76722
O -5.16959 -2.50036 3.73613
O -4.91826 -2.69881 2.62666
O -4.28745 -2.61767 1.80588
O -3.6007 -2.85631 0.928654
O -2.45865 -2.74941 0.570851
O -2.40731 -2.40033 -0.471774
O -1.84052 -3.14121 -0.980399
O -1.17595 -2.66335 -1.70509
O -0.114908 -3.0347 -2.05027
O -0.320133 -2.97196 -3.12899
O 0.669429 -2.42519 -2.90571
O 1.00246 -1.98135 -3.86043
O 2.03827 -1.46297 -4.13797
O 2.3076 -0.655059 -4.82855
O 3.18226 -0.134528 -5.02314
O 4.05365 -0.0415217 -5.82363
O 4.20194 1.0233 -6.25572
O 4.95234 1.77277 -5.86745
O 5.03132 2.18615 -6.8349
O 4.87482 3.33363 -7.00317
O 4.91724 4.37856 -7.38628
O 4.6837 5.30728 -6.81239
O 4.13034 6.20927 -6.9342
O 3.77389 6.82969 -6.11406
O 3.46605 7.19096 -5.06267
O 2.98422 7.77534 -4.24592
O 3.37366 8.72374 -3.82319
O 2.74897 8.51832 -2.73116
O 1.79781 8.83288 -1.97842
O 1.35025 8.03281 -1.49699
O 0.860648 8.13786 -0.621079
O 0.318528 7.2582 -0.778229
O 0.0338131 6.51133 -0.0667687
O -0.643631 6.09576 0.528011
O -0.927184 6.52347 1.38661
O -1.3517 5.87539 2.11929
O -1.06269 4.98971 2.7761
O -0.230681 4.20782 2.72239
O -0.368721 3.19735 3.36552
O -1.33878 2.64099 3.6971
O -1.42347 1.56214 3.12236
O -0.377013 1.18101 3.84501
O 0.591077 0.983377 4.4707
O 0.731763 -0.0477412 4.4298
O 1.26453 -0.896979 4.68473
O 0.95908 -0.948422 3.75284
O 1.20259 -2.00816 3.85049
O 1.24841 -3.09623 3.67553
O 0.689867 -3.932 3.90421
O 0.185051 -4.74122 4.21229
O 0.505519 -5.84722 3.87685
O -0.00988479 -6.68265 3.04229
O -0.858344 -6.83517 2.30044
O -1.48451 -7.07856 1.46885
O -1.24697 -7.3831 0.402401
O -1.01017 -8.12922 -0.508636
O -2.1943 -8.16552 -0.984653
O -2.35765 -8.9643 -1.78489
O -2.89273 -9.45511 -2.58193
O -3.66037 -9.41336 -3.502
O -4.23821 -8.60013 -3.19242
O -4.03696 -7.7972 -3.98928
O -4.41568 -7.01578 -4.72776
O -4.48544 -6.57567 -5.76468
O -4.23824 -5.90262 -6.51506
O -4.21615 -4.98942 -5.91055
O -3.64475 -4.10064 -5.70707
O -3.71355 -3.00766 -5.4636
O -3.40972 -1.82518 -5.54111
O -3.37848 -0.733937 -5.8742
O -2.51614 -0.327092 -5.43066
O -1.53178 0.38169 -5.70995
O -1.46124 0.516478 -4.56875
O -0.703444 1.1662 -4.0616
O 0.507025 1.44121 -3.92281
O 0.85375 1.50846 -2.76577
O 1.24995 1.65581 -1.71568
O 1.42537 1.8053 -0.688207
O 2.24231 1.98936 0.0446378
O 2.9619 2.44094 0.597962
O 3.85255 2.39196 1.12115
O 4.47515 2.24024 2.06165
100
 Atoms. Timestep: 1000
O 3.18363 2.26264 2.89165
O 3.05896 3.18085 3.38434
O 3.0041 3.87685 4.00716
O 2.79772 4.35873 4.8415
O 2.38241 4.49041 5.65262
O 1.74066 4.37215 6.34365
O 1.35421 4.04427 7.15896
O 0.610453 3.8525 7.76899
O -0.0351461 3.3372 8.17569
O -0.689527 2.65655 8.37515
O -1.37189 1.97585 8.23208
O -2.05344 1.31442 8.11869
O -2.23675 0.450682 7.82898
O -2.56757 -0.348345 7.33378
O -3.25786 -0.907793 6.90204
O -3.40887 -1.68878 6.37763
O -4.01101 -2.5077 6.28496
O -4.44753 -3.0607 5.56539
O -4.19413 -3.56473 4.7646
O -3.70237 -3.98109 4.10229
O -3.02227 -4.2429 3.3866
O -2.81239 -4.18684 2.49413
O -2.51294 -3.66306 1.66812
O -2.12156 -2.93063 1.08977
O -1.59621 -2.81817 0.245552
O -0.781216 -2.85586 -0.283926
O 0.025944 -2.29109 -0.396072
O 0.730842 -1.66404 -0.173345
O 1.47427 -1.16981 -0.508303
O 2.22542 -0.618401 -0.921758
O 2.90758 -0.0571172 -1.22801
O 3.63178 0.61381 -1.57393
O 3.8438 0.991496 -2.39385
O 3.98339 1.22669 -3.27107
O 4.0303 1.51011 -4.24051
O 3.97755 1.84322 -5.19454
O 3.39325 2.20967 -5.89562
O 3.27461 2.41615 -6.78853
O 3.27015 2.57115 -7.71466
O 3.13444 3.45863 -8.00804
O 2.91307 4.43584 -7.99692
O 2.79887 5.39878 -7.76676
O 2.66825 6.04918 -7.0624
O 2.64559 6.47939 -6.22464
O 2.48386 6.58681 -5.29975
O 2.3452 6.63584 -4.35922
O 1.96535 6.82364 -3.56177
O 1.25542 7.08228 -2.99041
O 1.19302 7.42255 -2.04273
O 0.793832 7.09155 -1.21951
O 0.37063 6.67048 -0.465779
O -0.139525 6.24468 0.29046
O -0.572806 5.73437 1.01377
O -0.724927 5.05228 1.62418
O -0.863588 4.33566 2.2896
O -0.922364 3.57973 2.88623
O -1.15478 2.82998 3.39385
O -1.27934 2.09707 4.14246
O -1.29573 1.295 4.78087
O -1.11993 0.517529 5.26489
O -1.10951 -0.432546 5.41614
O -0.497157 -1.12739 5.34448
O 0.0562579 -1.88346 5.07961
O 0.332031 -2.66859 4.57673
O 0.934239 -3.44963 4.39613
O 0.842289 -4.30393 3.94792
O 0.577421 -5.24982 3.81272
O -0.133766 -5.86287 3.79154
O -0.823112 -6.34785 3.3835
O -1.54674 -6.73254 2.85746
O -2.03631 -7.01795 2.0958
O -2.44541 -7.10132 1.22274
O -2.48869 -7.60595 0.375633
O -2.83129 -7.51651 -0.508692
O -3.55753 -7.84726 -1.08409
O -4.29489 -7.91391 -1.68014
O -4.92394 -7.40498 -2.21921
O -5.44317 -7.26744 -3.01427
O -5.668 -6.9594 -3.99666
O -6.02959 -6.77753 -4.88974
O -5.83692 -6.09342 -5.49478
O -5.29809 -5.777 -6.26865
O -4.71403 -5.21987 -6.7913
O -4.34725 -4.3465 -7.23037
O -4.22314 -3.71628 -6.55598
O -4.11433 -3.06829 -5.81629
O -3.60027 -2.64671 -5.06897
O -2.78369 -2.68795 -4.51943
O -2.26572 -2.55973 -3.76059
O -1.87823 -2.40062 -2.90086
O -1.6058 -1.90741 -2.17653
O -1.66905 -1.45813 -1.37044
O -1.5609 -0.972933 -0.549098
O -0.881234 -0.750341 0.0402184
O -0.489914 -0.339207 0.881574
O -0.115354 -0.489211 1.72593
O 0.406796 -0.180876 2.41216
O 1.25221 0.2423 2.32516
O 1.96827 0.79545 2.3829
O 2.56938 1.52196 2.58665
100
 Atoms. Timestep: 2000
O 2.24213 0.736687 3.37523
O 2.97004 1.29215 3.65173
O 3.51006 1.83851 4.1744
O 4.14967 2.36911 4.62359
O 4.58521 2.9707 5.22922
O 4.32289 3.52241 6.00196
O 4.04837 4.2355 6.64004
O 3.18125 4.22316 7.17349
O 2.25692 3.96147 7.09478
O 1.50226 3.32741 6.91516
O 0.719375 2.84267 7.23564
O -0.159248 2.62784 7.42108
O -1.03779 2.39572 7.80375
O -1.46693 1.52956 7.58468
O -1.58507 0.733305 7.01817
O -1.70579 0.0628107 6.36087
O -2.02008 -0.439891 5.6347
O -1.99625 -0.86919 4.81792
O -1.86039 -1.46686 4.08807
O -1.58584 -2.02195 3.32838
O -1.08122 -2.50934 2.67829
O -0.480138 -2.92709 2.0611
O -0.468303 -2.92397 1.05372
O -0.11848 -2.79663 0.164416
O 0.324949 -2.40193 -0.533586
O 1.01644 -2.0241 -1.03892
O 1.89058 -1.93497 -1.4581
O 2.32841 -1.24026 -1.93165
O 3.07624 -0.789255 -2.32124
O 4.01046 -0.748308 -2.5081
O 4.72552 -0.425708 -3.14634
O 5.30116 -0.499659 -3.90661
O 5.43213 -0.571247 -4.85708
O 5.60704 -0.0809453 -5.66379
O 5.39677 0.208093 -6.51231
O 4.94728 0.929896 -7.03563
O 4.40446 1.33781 -7.83341
O 3.84653 2.06139 -8.10856
O 2.96613 2.31951 -8.37158
O 2.02493 2.63287 -8.38887
O 1.16556 2.56108 -8.05991
O 0.295078 2.90741 -7.99028
O -0.453641 3.47068 -7.97353
O -0.678363 4.33052 -7.68252
O -0.382105 5.03795 -7.17881
O 0.062109 5.47887 -6.41577
O 0.622455 5.94669 -5.77769
O 0.796461 5.96136 -4.84513
O 1.04883 5.87339 -3.92533
O 1.29354 5.49625 -3.01763
O 1.32331 4.9342 -2.24478
O 1.2925 4.72419 -1.349
O 0.970511 4.39224 -0.518721
O 0.800101 4.41739 0.429927
O 0.920029 4.42295 1.33876
O 0.881974 4.13268 2.25196
O 0.253849 3.78592 2.93515
O -0.322581 3.17139 3.429
O -0.140013 2.45555 4.03342
O 0.0739655 1.76877 4.56225
O 0.265453 0.882194 4.78657
O -0.147725 0.114196 5.2516
O -0.372695 -0.755736 5.72907
O -0.713891 -1.65217 5.91202
O -0.994804 -2.58963 6.01607
O -1.39443 -3.18697 5.36766
O -2.15927 -3.70578 5.05518
O -2.69469 -4.41383 4.72639
O -3.09035 -5.09068 4.20968
O -3.40386 -5.3835 3.28285
O -4.27469 -5.61677 3.00957
O -4.74692 -6.36908 2.50442
O -5.05184 -6.7617 1.7199
O -5.2167 -7.24307 0.934415
O -5.39897 -7.60547 0.0636167
O -4.8602 -8.25657 -0.608792
O -4.88322 -8.56006 -1.55245
O -4.98595 -8.54408 -2.48236
O -5.19084 -8.09084 -3.33601
O -5.24026 -7.57372 -4.08428
O -5.13663 -6.98652 -4.83251
O -4.9609 -6.39495 -5.53127
O -4.72219 -5.86441 -6.25401
O -4.55314 -5.25675 -6.92066
O -4.52609 -4.32563 -6.8729
O -4.43264 -3.44478 -7.06741
O -4.16394 -2.53077 -6.98184
O -3.74155 -1.82039 -6.43258
O -2.99456 -1.62592 -5.94409
O -2.77635 -1.43654 -4.99645
O -2.20198 -1.07269 -4.2485
O -2.15823 -0.726176 -3.39439
O -1.91783 -0.568409 -2.48295
O -1.59424 -0.597367 -1.5623
O -1.15524 -0.438857 -0.712353
O -0.820212 -0.524959 0.178771
O -0.346176 -0.532504 1.01246
O 0.312088 -0.0943448 1.57031
O 0.786032 0.455033 2.21069
O 1.46568 0.453522 2.8513
100
 Atoms. Timestep: 3000
O 1.6184 -0.061582 0.96564
O 2.19462 0.314001 1.58433
O 2.67761 0.812566 2.25477
O 3.03439 1.47837 2.79262
O 3.18655 2.11344 3.43886
O 3.12844 2.59008 4.3142
O 2.95257 2.90212 5.19832
O 2.35262 3.00462 5.92466
O 1.43765 2.72271 6.13087
O 0.560781 2.62018 6.35491
O -0.401308 2.51672 6.06419
O -1.23142 2.12686 5.85601
O -2.19376 1.96886 5.81215
O -3.11239 1.74767 5.76952
O -3.75102 1.41034 5.08024
O -4.3397 0.897254 4.46673
O -4.79244 0.578109 3.74826
O -4.72652 0.39265 2.80249
O -4.17595 0.443323 1.96981
O -3.89279 -0.0530337 1.18985
O -3.23424 -0.178077 0.504142
O -2.49824 -0.607422 -0.0393664
O -1.64647 -0.534725 -0.410304
O -0.670806 -0.589992 -0.620832
O 0.106109 -0.721512 -1.165
O 0.726726 -0.986088 -1.92893
O 1.59112 -0.978352 -2.35885
O 2.46651 -0.919663 -2.74964
O 3.32412 -0.761558 -3.15104
O 3.97167 -0.648998 -3.79654
O 4.51959 -0.587335 -4.54949
O 4.80284 -0.749323 -5.44956
O 4.87082 -0.740873 -6.37048
O 5.05589 -0.630179 -7.32041
O 5.05822 -0.258424 -8.19411
O 4.89181 0.54764 -8.68366
O 4.60257 1.37775 -9.09808
O 4.62471 2.33172 -9.28942
O 4.39962 3.25637 -8.98148
O 3.78939 3.88372 -8.57358
O 3.03167 4.41535 -8.32105
O 2.36731 4.46017 -7.67915
O 1.74678 4.67204 -6.95526
O 1.32519 4.73424 -6.11699
O 0.653158 5.00858 -5.46015
O 0.00632859 5.48499 -4.8905
O -0.549611 5.80373 -4.18662
O -0.836418 6.01192 -3.30805
O -0.987899 6.28827 -2.38369
O -0.548076 6.64263 -1.60632
O 0.0218578 7.40932 -1.34032
O 0.866847 7.48411 -0.888949
O 1.53338 6.89883 -0.424369
O 1.35919 5.94574 -0.246348
O 1.03439 5.16644 0.20477
O 0.745151 4.32445 0.666293
O 0.692954 3.41811 1.03895
O 0.689529 2.66557 1.67714
O 0.357806 1.84268 1.98942
O 0.132046 0.953164 2.39278
O -0.205028 0.43702 3.17908
O -0.860176 0.0401015 3.76379
O -1.63947 -0.515027 4.08823
O -1.66352 -1.21565 4.69953
O -1.45682 -2.11804 5.1066
O -1.32668 -3.05723 5.19436
O -1.78153 -3.82863 4.98401
O -2.12917 -4.56339 4.47642
O -2.80294 -5.10494 4.14185
O -3.16047 -5.8282 3.67539
O -3.97443 -6.39069 3.47723
O -4.68732 -7.04933 3.4272
O -5.13678 -7.93768 3.36023
O -5.53873 -8.65066 2.82979
O -5.75619 -8.61851 1.88209
O -6.19911 -8.04309 1.23946
O -6.71504 -7.88063 0.353748
O -6.66251 -7.72256 -0.590874
O -6.55538 -7.58811 -1.56668
O -6.19683 -7.12561 -2.32449
O -5.55343 -6.63765 -2.92125
O -5.37259 -6.50587 -3.84078
O -4.70293 -6.2347 -4.6503
O -3.98137 -6.02174 -5.40932
O -3.57215 -5.66871 -6.23288
O -3.01486 -5.10952 -6.81601
O -2.49941 -4.25924 -7.03371
O -2.20472 -3.44754 -6.79412
O -2.09697 -2.60411 -6.46195
O -2.01041 -1.7965 -5.87813
O -2.35981 -1.75237 -4.95602
O -2.70498 -1.14125 -4.31197
O -2.63997 -0.593288 -3.50482
O -2.15584 0.124627 -3.09396
O -1.66738 0.970903 -2.94978
O -1.2502 1.59164 -2.33133
O -0.438492 1.34366 -1.78832
O -0.265765 0.626948 -1.06231
O 0.171018 0.180121 -0.315305
O 0.813751 -0.163977 0.378438
100
 Atoms. Timestep: 4000
O 2.16018 0.816423 2.00906
O 2.54994 0.509899 2.78415
O 3.13969 0.947493 3.57669
O 3.69024 1.15059 4.27227
O 4.34462 1.42403 4.93704
O 4.18838 1.97652 5.77739
O 4.00201 2.50535 6.59123
O 3.54707 2.93212 7.34072
O 2.92489 2.9702 8.05538
O 2.03152 2.91648 8.37222
O 1.10589 3.32184 8.48348
O 0.277073 3.271 7.92951
O -0.472691 3.54127 7.44626
O -0.800791 3.20245 6.64328
O -1.24779 3.24692 5.76077
O -1.60314 3.11556 4.89261
O -2.26685 3.14789 4.05702
O -2.54389 2.71014 3.30199
O -2.57006 2.19692 2.511
O -1.97131 2.08211 1.75275
O -1.12314 1.70669 1.37649
O -0.389192 1.08339 1.14209
O 0.303738 0.720005 0.500521
O 0.820829 0.0542565 0.00869732
O 0.963646 -0.63648 -0.596862
O 1.27724 -1.31378 -1.28996
O 1.39828 -1.62071 -2.21476
O 1.62321 -1.6296 -3.11408
O 2.118 -1.39768 -3.88625
O 2.81423 -1.02564 -4.42233
O 3.19547 -0.63937 -5.25245
O 3.32876 -0.508504 -6.25043
O 3.59745 -0.472767 -7.19366
O 4.08145 -0.24638 -7.97939
O 4.24203 0.262682 -8.76403
O 4.26301 1.0097 -9.42726
O 3.95606 1.89587 -9.71546
O 3.45424 2.48261 -10.4063
O 2.72544 2.87394 -10.7736
O 2.10243 3.5245 -11.0934
O 1.47827 4.03181 -10.5793
O 1.19754 4.75125 -9.94237
O 1.40579 5.34779 -9.18046
O 1.313 6.1425 -8.52857
O 0.775624 6.76606 -8.01665
O 0.890906 7.28605 -7.23598
O 0.524925 7.3751 -6.33709
O 0.272213 7.32793 -5.37485
O 0.382808 7.4189 -4.43905
O 0.593531 7.26567 -3.49267
O 0.28107 7.47458 -2.60447
O -0.19307 7.17877 -1.76165
O -0.301182 6.62278 -0.931512
O -0.42455 6.17457 -0.0392578
O -0.254832 5.38835 0.436276
O -0.629632 4.6377 0.880825
O -0.585259 3.73295 1.15098
O -0.722871 2.98532 1.64171
O -1.04888 2.29976 2.27172
O -1.2177 1.554 2.8483
O -1.36113 0.659459 3.26398
O -1.57389 -0.255119 3.13308
O -1.83521 -1.15855 3.30909
O -2.2765 -2.06137 3.21227
O -3.0251 -2.79116 3.02104
O -3.68775 -3.47549 3.11968
O -3.9982 -4.28196 3.50302
O -4.06982 -5.22078 3.90478
O -4.2299 -6.19093 3.96648
O -4.53906 -7.04331 4.07825
O -4.82463 -7.96162 3.9458
O -5.00333 -8.68124 3.33162
O -5.09375 -9.13887 2.50361
O -5.32458 -9.047 1.57857
O -5.3241 -9.26826 0.580239
O -5.24381 -8.97898 -0.368241
O -5.52377 -8.45429 -1.21743
O -5.56611 -7.75433 -1.87157
O -5.61432 -7.54835 -2.84482
O -5.63012 -7.04394 -3.65434
O -5.33372 -6.521 -4.46477
O -5.05504 -6.07199 -5.27914
O -4.72761 -5.58665 -6.07238
O -4.41386 -4.89172 -6.68318
O -4.7222 -4.00263 -6.84816
O -4.84602 -3.10835 -7.15073
O -4.28323 -2.30081 -7.20982
O -3.52907 -1.71381 -7.42407
O -2.76063 -1.31945 -6.92218
O -2.19347 -0.800452 -6.25291
O -1.37907 -0.937015 -5.77719
O -0.660579 -1.21869 -5.23268
O -0.260321 -1.30784 -4.36479
O 0.139917 -0.937004 -3.54505
O 0.372633 -0.427353 -2.75557
O 0.792095 -0.0508978 -1.97878
O 0.778201 0.397121 -1.18404
O 1.19576 0.973719 -0.525025
O 1.75291 1.10245 0.317982
O 2.28107 1.23737 1.11587
100
 Atoms. Timestep: 5000
O 4.11547 1.90439 -0.191836
O 3.73339 2.42144 0.547837
O 3.87285 2.7183 1.43961
O 4.01167 3.02869 2.3569
O 3.42985 3.09935 3.2123
O 3.47797 3.29889 4.15507
O 3.24717 3.4154 5.07415
O 2.82269 3.63491 5.93086
O 2.14367 3.78569 6.61329
O 1.33182 3.51841 6.9657
O 0.319132 3.4718 7.14191
O -0.359209 2.85173 6.85805
O -1.02276 2.26652 6.57175
O -1.81864 1.80823 6.54967
O -2.69871 1.39222 6.45471
O -3.32514 0.91998 5.90839
O -3.51645 0.555594 5.08287
O -3.73152 0.354391 4.17286
O -3.51538 0.3093 3.25191
O -3.17469 -0.108625 2.4581
O -2.46074 -0.68791 2.06936
O -1.65863 -0.855451 1.61825
O -0.956217 -1.06608 0.937073
O -0.307082 -1.35345 0.384175
O 0.255375 -1.66787 -0.318628
O 0.883956 -1.87916 -0.990071
O 1.30007 -1.92012 -1.86594
O 1.66883 -2.12486 -2.74694
O 2.18695 -1.64843 -3.46582
O 2.36597 -1.0945 -4.18949
O 2.16778 -0.49236 -4.90857
O 2.22961 -0.10521 -5.774
O 2.48577 0.428883 -6.51089
O 2.61458 0.9914 -7.39413
O 3.14925 1.60961 -7.96543
O 3.12602 2.35143 -8.64328
O 2.97662 3.28036 -8.91304
O 3.0101 4.22101 -8.9776
O 2.89195 5.1023 -9.27622
O 3.15872 6.02897 -8.96412
O 3.17746 6.98211 -9.00584
O 2.5301 7.62428 -8.71955
O 2.51806 8.40758 -8.11614
O 2.38334 8.97932 -7.34361
O 2.11192 9.22691 -6.47291
O 1.91241 9.38166 -5.52731
O 1.48176 9.41562 -4.75392
O 1.49826 8.97472 -3.90477
O 1.5591 8.42978 -3.06384
O 1.20956 7.85973 -2.31527
O 1.17162 7.27081 -1.59427
O 0.814643 6.69794 -1.00521
O 0.663794 6.09648 -0.291265
O 0.464068 5.61982 0.499832
O 0.404521 5.06184 1.2527
O -0.277577 4.64275 1.81493
O -0.733612 4.1024 2.5395
O -1.09 3.69858 3.34706
O -1.10418 3.15988 4.16568
O -1.23107 2.51622 4.86054
O -1.3266 1.5877 4.99068
O -1.36727 0.673145 4.70703
O -1.50664 -0.236547 4.58239
O -1.85466 -0.995226 4.18728
O -2.08749 -1.80864 3.61705
O -2.26269 -2.8233 3.39777
O -2.25761 -3.75882 3.2543
O -2.29089 -4.72561 3.31783
O -2.43201 -5.67444 3.24752
O -2.76362 -6.64543 3.10784
O -2.939 -7.45129 2.58199
O -3.05684 -8.06346 1.85249
O -3.65532 -8.33138 1.18493
O -4.3787 -8.2301 0.622908
O -4.61405 -7.83258 -0.205433
O -4.49105 -7.45085 -1.12176
O -4.44779 -7.07161 -2.07846
O -4.84105 -6.52844 -2.77687
O -5.3815 -6.20466 -3.54508
O -6.03199 -5.98041 -4.2118
O -6.53085 -5.8529 -4.97025
O -7.03424 -5.67967 -5.75373
O -6.94023 -5.24518 -6.69833
O -6.62809 -4.85717 -7.53055
O -5.89483 -4.4168 -8.03162
O -5.13101 -3.76922 -8.16128
O -4.58237 -3.04222 -8.01835
O -4.01602 -2.39873 -7.47959
O -3.42684 -2.03683 -6.77767
O -2.76841 -1.65407 -6.26281
O -1.91561 -1.23576 -6.04618
O -1.00522 -0.806512 -6.05028
O -0.338407 -0.789941 -5.27703
O 0.419653 -0.637537 -4.71475
O 1.16422 -0.416302 -4.13222
O 1.80226 -0.259091 -3.43537
O 2.62765 -0.120038 -2.82495
O 3.35821 0.051684 -2.27358
O 3.9262 0.481568 -1.5187
O 4.08802 1.17295 -0.796154
100
 Atoms. Timestep: 6000
O 3.76239 2.64456 0.378392
O 4.1921 3.10696 1.15003
O 4.94281 3.51969 1.75387
O 5.07842 4.16239 2.51169
O 4.88404 4.75757 3.31035
O 4.40756 5.05785 4.14922
O 3.94988 5.27192 4.96233
O 3.32734 5.21683 5.68279
O 2.51781 4.77902 5.83666
O 1.58193 4.63211 5.70562
O 0.723537 4.14866 5.82127
O -0.0999333 3.68957 5.65339
O -0.792446 3.06706 5.59843
O -1.49566 2.48077 6.03197
O -1.99525 1.59565 5.93558
O -2.58334 0.821605 5.85971
O -3.02304 0.233421 5.26186
O -3.3108 -0.247877 4.47779
O -3.00178 -0.605729 3.62264
O -2.42061 -0.677223 2.8234
O -2.38845 -0.890557 1.79232
O -1.77567 -0.914659 1.08251
O -1.38726 -1.18927 0.183321
O -0.753451 -1.69212 -0.340772
O 0.0372199 -1.80161 -0.978046
O 0.837517 -1.97023 -1.57827
O 1.54464 -1.94589 -2.24715
O 1.99254 -1.92816 -3.06858
O 2.65535 -1.41875 -3.65017
O 3.03158 -1.01974 -4.47407
O 3.37193 -0.270107 -5.07695
O 3.38454 0.416674 -5.75417
O 3.44462 1.16754 -6.33077
O 3.50771 1.7856 -7.10092
O 3.56571 2.64323 -7.58189
O 3.18743 3.4087 -7.99478
O 2.75797 4.27796 -8.42517
O 2.54417 5.15466 -8.90338
O 3.0785 5.85974 -9.2505
O 3.74422 6.36689 -8.84964
O 4.31474 6.99393 -8.37773
O 4.75588 7.66233 -7.80433
O 4.34858 8.38751 -7.29604
O 3.8934 8.47405 -6.4335
O 3.8954 8.50495 -5.5328
O 3.54872 8.43082 -4.6466
O 2.87981 8.36209 -3.98782
O 2.49136 8.52696 -3.14083
O 2.11056 9.13878 -2.40707
O 1.97565 9.11943 -1.49426
O 1.80928 8.65603 -0.630985
O 1.73263 8.17805 0.214853
O 1.78315 7.79711 1.12061
O 1.70169 7.40525 1.97894
O 1.47548 6.63767 2.63027
O 0.89868 5.94116 2.86326
O 0.402508 5.22998 3.1685
O 0.0936816 4.42891 3.6883
O -0.078098 3.50717 4.00561
O -0.378522 2.68393 4.25896
O -0.820328 1.82648 4.2669
O -0.980816 0.945469 3.99179
O -1.11628 0.0286445 3.97518
O -1.41518 -0.886673 3.92632
O -1.95289 -1.43994 3.38155
O -2.67039 -1.90415 2.91125
O -3.19105 -2.7157 2.54273
O -3.45868 -3.60668 2.45692
O -3.88573 -4.54998 2.4031
O -3.6886 -5.31378 1.82024
O -3.58785 -6.2222 1.42746
O -3.82323 -6.43564 0.476869
O -4.14597 -6.95506 -0.296193
O -4.40185 -7.15653 -1.23269
O -4.76185 -7.23983 -2.15453
O -4.71116 -7.51525 -3.07757
O -4.64272 -7.5483 -4.00224
O -4.95227 -7.72632 -4.88314
O -5.23428 -7.47461 -5.82632
O -5.12328 -7.06705 -6.67454
O -4.81769 -6.36055 -7.30207
O -5.35442 -5.62495 -7.74055
O -5.6192 -4.74647 -8.09444
O -5.59814 -3.85216 -8.46343
O -5.3644 -2.97682 -8.19671
O -4.9592 -2.30701 -7.68956
O -4.78142 -1.44109 -7.20076
O -4.41293 -0.683919 -6.78377
O -3.87905 -0.270204 -6.07401
O -3.5885 0.289979 -5.35077
O -3.33527 0.681532 -4.46789
O -2.81718 1.12598 -3.80511
O -2.17778 0.939279 -3.08607
O -1.38049 0.955273 -2.49161
O -0.480125 1.09475 -2.16278
O 0.330444 1.13184 -1.72537
O 1.08799 1.29085 -1.10336
O 2.09819 1.37657 -1.20543
O 2.85417 1.93207 -1.133
O 3.37039 2.31706 -0.431857
100
 Atoms. Timestep: 7000
O 3.55999 3.01709 0.444887
O 4.12071 3.54398 1.05081
O 4.90873 3.62061 1.65394
O 5.19162 3.67351 2.63405
O 4.82498 3.75226 3.5354
O 4.7068 3.52518 4.45387
O 4.25549 3.44209 5.30704
O 3.601 3.0871 5.98774
O 2.85408 3.48374 6.432
O 1.88173 3.81319 6.59889
O 1.05037 4.17822 6.47749
O 0.202821 3.89449 6.2982
O -0.695452 3.5595 6.36684
O -1.39542 3.12402 5.92353
O -1.71419 2.29555 5.76627
O -2.38525 1.76874 5.3351
O -2.80139 2.00877 4.50936
O -3.03662 2.05232 3.5627
O -2.44366 1.90311 2.83222
O -1.80572 1.28082 2.37191
O -1.51033 1.09427 1.50295
O -1.20258 0.857788 0.656171
O -1.17681 0.330918 -0.168532
O -0.866164 -0.359796 -0.777422
O -0.0957032 -0.911246 -1.15487
O 0.749603 -1.02408 -1.6689
O 1.38889 -1.22381 -2.29505
O 1.93177 -1.34631 -3.15994
O 2.24375 -1.25657 -4.05858
O 1.96761 -0.709414 -4.84127
O 1.90656 -0.0817181 -5.60969
O 1.908 0.583963 -6.35868
O 1.88218 1.40763 -6.90391
O 1.99868 2.17581 -7.52262
O 2.01806 3.04957 -7.99355
O 1.62675 3.917 -7.9528
O 1.42387 4.75723 -7.56723
O 1.2101 5.64304 -7.44301
O 1.31748 6.5376 -7.65884
O 1.58086 7.40739 -7.8635
O 2.27011 7.9159 -7.51914
O 2.66604 8.53341 -6.89948
O 2.84227 8.9834 -6.07147
O 2.91027 9.48881 -5.25771
O 3.47759 9.81781 -4.60555
O 4.05203 10.0149 -3.85453
O 4.48983 9.92904 -3.03275
O 4.71525 9.38238 -2.32065
O 4.65264 8.73568 -1.52839
O 4.31862 8.04674 -0.974981
O 3.6034 7.48324 -0.489818
O 2.98891 6.79772 -0.239841
O 2.75371 5.92349 -0.13802
O 2.51047 5.11967 0.310702
O 1.77869 4.54504 0.364405
O 1.0609 4.06383 0.769607
O 0.636907 3.43569 1.37316
O 0.251742 2.62358 1.75015
O 0.0491155 1.77265 2.20694
O 0.210842 0.904833 2.51802
O 0.135924 -0.0237727 2.90095
O -0.338344 -0.882517 3.02601
O -0.449528 -1.84243 3.13438
O -0.25846 -2.73107 2.84335
O -0.121283 -3.56637 2.449
O -0.309323 -4.4055 2.04374
O -0.868008 -4.95495 1.47704
O -1.48608 -5.57694 1.06311
O -2.08963 -6.08179 0.45679
O -2.53664 -6.55065 -0.250229
O -2.71296 -7.21463 -0.895948
O -2.66974 -7.79094 -1.69542
O -2.8673 -8.03189 -2.56183
O -3.5435 -8.17209 -3.27975
O -4.25876 -8.36377 -3.97797
O -4.88419 -8.53352 -4.66022
O -5.36301 -8.07384 -5.34313
O -5.59064 -7.57607 -6.14117
O -5.41801 -6.84288 -6.72663
O -5.67328 -6.01665 -7.23933
O -5.53071 -5.15511 -7.57008
O -5.22006 -4.3445 -7.92822
O -4.73366 -3.70941 -8.49031
O -4.06531 -3.52171 -9.06652
O -3.17825 -3.14616 -9.25757
O -2.56735 -2.3343 -9.37174
O -1.85506 -1.64146 -9.09899
O -1.72504 -0.799449 -8.48093
O -1.5736 -0.776647 -7.5575
O -1.31252 -0.773224 -6.56868
O -1.50287 -1.10366 -5.57635
O -1.5119 -1.15412 -4.61763
O -1.06516 -0.718015 -3.90443
O -0.695567 -0.482256 -3.05397
O -0.030071 -0.224795 -2.4129
O 0.462368 0.345039 -1.76223
O 0.957569 1.18934 -1.39126
O 1.23815 1.99081 -0.919287
O 1.90844 2.62155 -0.493586
O 2.81772 2.78126 -0.112396
100
 Atoms. Timestep: 8000
O 4.07848 1.87312 -0.386129
O 4.38778 2.0343 0.507386
O 4.72948 2.50274 1.3241
O 4.5283 2.59803 2.28613
O 4.0573 2.77441 3.08817
O 3.94835 2.85921 4.0534
O 3.48512 3.30463 4.89499
O 3.61812 3.00488 5.79338
O 3.2942 2.74105 6.69874
O 2.77427 2.61828 7.4759
O 2.16575 2.4977 8.23202
O 1.46189 2.12438 8.71619
O 0.853424 1.461 8.43487
O 0.154073 1.17367 7.8276
O -0.341752 0.926708 7.06357
O -0.574827 0.589112 6.24117
O -0.99583 0.533623 5.36113
O -1.46443 0.446572 4.42053
O -1.7868 0.0464578 3.5644
O -1.54601 -0.509976 2.89554
O -1.6471 -0.753346 1.97696
O -1.85025 -0.792242 1.00671
O -1.79525 -0.794799 0.0810973
O -1.04409 -1.0842 -0.457819
O -0.763822 -1.40215 -1.28008
O -0.350956 -1.60673 -2.12494
O 0.167113 -1.67987 -2.9429
O 0.481553 -1.35181 -3.78716
O 0.717929 -0.933407 -4.61149
O 0.650993 -0.242914 -5.23815
O 1.2457 0.346809 -5.84407
O 1.49978 0.910226 -6.62561
O 1.39375 1.32224 -7.45208
O 1.27473 2.15912 -8.10805
O 1.20326 2.84955 -8.74318
O 1.05542 3.64843 -9.19963
O 0.810155 4.58783 -9.37204
O 0.725543 5.55483 -9.20617
O 0.166087 6.38233 -8.99045
O 0.233796 7.28519 -8.60962
O 0.802291 7.85569 -7.99561
O 1.24868 8.61255 -7.49587
O 1.88515 9.24895 -7.06609
O 2.66502 9.68164 -6.53075
O 3.44116 9.82945 -5.98462
O 3.90432 9.67712 -5.16402
O 4.33719 9.21507 -4.35103
O 3.99007 8.56228 -3.80014
O 3.67482 8.24448 -2.9654
O 3.3392 7.8848 -2.18653
O 2.66314 7.3056 -1.85758
O 2.03198 6.65604 -1.43146
O 1.26238 6.16211 -1.14913
O 0.548164 5.54623 -0.690681
O 0.446672 5.09159 0.215298
O 0.710299 4.30731 0.675524
O 0.332275 3.38556 0.872342
O -0.217289 2.57778 0.829893
O -0.504191 1.66075 0.932502
O -0.433425 0.647939 1.03379
O -0.23285 -0.221553 1.29999
O -0.264365 -1.06501 1.78922
O -0.0918218 -1.99741 1.97567
O -0.234516 -2.94613 2.03061
O -0.126885 -3.93519 1.93001
O -0.392828 -4.82146 2.0836
O -0.402226 -5.76336 2.05544
O -0.561427 -6.65883 1.72417
O -0.96397 -7.4207 1.23206
O -1.23516 -8.07287 0.544504
O -1.55541 -8.24709 -0.359577
O -2.05127 -8.0717 -1.13515
O -2.70195 -8.35773 -1.81073
O -3.10288 -8.36308 -2.78447
O -3.37158 -8.24272 -3.67689
O -3.4781 -8.24696 -4.60003
O -3.99963 -8.54351 -5.3413
O -4.84816 -8.56457 -5.82568
O -5.50691 -8.22987 -6.48411
O -5.89497 -7.4247 -6.75082
O -5.25145 -6.70871 -6.74236
O -4.41529 -6.1419 -6.72048
O -3.57817 -5.84517 -6.41632
O -2.59711 -5.92687 -6.12625
O -1.75941 -5.7314 -6.41104
O -0.916306 -5.64695 -6.8318
O -0.0103378 -5.27907 -6.66129
O 0.574671 -4.69721 -6.16412
O 0.627657 -3.82504 -5.77146
O 0.240643 -3.15073 -5.22656
O -0.258598 -2.33159 -5.21525
O -0.582763 -1.52041 -4.95881
O -0.660577 -0.550513 -4.89729
O -0.441262 0.261562 -4.43056
O -0.0938461 0.840701 -3.78828
O 0.378677 1.21615 -3.04824
O 1.27201 1.36586 -2.71528
O 2.15727 1.65795 -2.43506
O 2.79278 1.70963 -1.70646
O 3.63349 1.85285 -1.243
100
 Atoms. Timestep: 9000
O 4.58583 0.56181 0.417331
O 4.98932 0.81158 1.24017
O 5.04862 1.44798 1.92256
O 5.14554 2.25463 2.56113
O 4.97643 3.01041 3.15125
O 4.78804 3.31877 4.03453
O 4.71662 3.5165 4.97622
O 4.78169 3.31435 5.91657
O 4.75833 2.92848 6.78258
O 4.54099 2.12926 7.25062
O 3.90951 1.27997 7.03424
O 3.31735 0.822592 6.41806
O 2.42194 0.816059 6.12714
O 1.522 0.526188 5.84524
O 0.669394 0.308758 5.33542
O -0.129399 0.288559 4.78072
O -0.746597 0.517194 4.06746
O -1.21103 0.479757 3.21778
O -1.28569 0.201046 2.37022
O -0.976976 0.237897 1.5029
O -0.69673 -0.362263 0.842772
O -0.0701065 -0.809049 0.250746
O 0.256394 -1.04517 -0.651754
O 0.440887 -1.22857 -1.58861
O 0.653383 -1.33004 -2.56571
O 0.672194 -1.41297 -3.56729
O 1.18379 -1.40913 -4.39657
O 1.55564 -1.44021 -5.30235
O 1.85269 -0.971521 -6.13818
O 1.84073 -0.234491 -6.76593
O 1.48759 0.396066 -7.40207
O 1.44735 0.907945 -8.17404
O 1.45566 1.4776 -9.04225
O 1.73173 2.3032 -9.40048
O 1.9368 3.19056 -9.79324
O 2.33528 4.0737 -9.63825
O 2.74631 4.94388 -9.56802
O 3.03081 5.79716 -9.09989
O 3.2511 6.69676 -8.77779
O 3.17222 7.44512 -8.26828
O 3.36188 7.99589 -7.49624
O 3.54153 8.34935 -6.66292
O 3.50296 9.23646 -6.26713
O 3.52528 10.0244 -5.70773
O 4.05606 10.5761 -5.11569
O 3.9237 10.2406 -4.25318
O 3.53255 10.1595 -3.35636
O 3.10796 10.1603 -2.48616
O 2.55933 9.74988 -1.77081
O 2.46576 8.87735 -1.31421
O 1.94888 8.14612 -0.989718
O 1.26938 7.64184 -0.614197
O 0.931252 6.73685 -0.669149
O 0.592427 5.77721 -0.525911
O 0.198295 5.05785 0.0639694
O 0.275339 4.15726 0.591443
O 0.439745 3.25555 0.557783
O 0.647529 2.30953 0.663663
O 0.965216 1.35893 0.78464
O 1.45008 0.588685 0.531773
O 1.92338 -0.25548 0.251496
O 2.34864 -1.1577 0.188564
O 2.3863 -2.15055 0.132338
O 2.23221 -3.11276 -0.0225688
O 1.90292 -4.03485 0.0322812
O 1.15253 -4.54239 -0.318352
O 0.184576 -4.98478 -0.374577
O -0.23747 -5.92309 -0.543148
O -0.932902 -6.53496 -0.689308
O -1.50087 -7.30516 -0.976357
O -2.26278 -7.75368 -1.38767
O -2.94531 -8.54557 -1.35
O -3.8008 -8.84044 -1.6664
O -4.44913 -9.10865 -2.34458
O -5.2101 -9.27025 -2.92779
O -5.99643 -8.86362 -3.5115
O -6.46942 -8.22983 -4.03601
O -6.80514 -7.41821 -4.43781
O -6.5574 -7.03701 -5.2525
O -6.48296 -7.21473 -6.27044
O -6.03884 -6.91454 -7.06559
O -5.5717 -6.5167 -7.77908
O -4.8733 -6.01578 -8.34592
O -4.03762 -5.4712 -8.55959
O -3.27739 -4.90347 -8.80428
O -2.65314 -4.24026 -9.05831
O -2.04188 -3.52759 -8.87456
O -1.5503 -2.70988 -8.73564
O -1.17843 -2.12888 -8.11002
O -0.949256 -1.29337 -7.61399
O -0.581092 -0.646637 -6.98839
O 0.0831179 -0.169385 -6.50775
O 0.933731 -0.288787 -6.00964
O 1.63654 -0.290904 -5.31843
O 2.10027 -0.199778 -4.45357
O 2.4926 0.0881971 -3.62655
O 2.45099 0.172862 -2.62249
O 2.58901 0.195478 -1.5808
O 3.06367 0.402137 -0.769097
O 3.70316 0.542084 -0.108062
100
 Atoms. Timestep: 10000
O 4.4492 2.78348 0.437595
O 5.02617 3.19005 1.07327
O 5.67016 3.56216 1.6094
O 6.52526 3.4112 1.94917
O 7.15056 2.74153 2.32322
O 7.5552 1.99189 2.69954
O 7.60378 1.44613 3.46437
O 7.52841 1.25438 4.3985
O 7.02629 0.886292 5.13317
O 6.28704 0.44453 5.55712
O 5.40764 0.148268 5.71833
O 4.45482 -0.12999 5.84125
O 3.61187 -0.57618 5.48084
O 2.94618 -1.24633 5.22163
O 2.33777 -1.78011 4.7831
O 1.69858 -1.80418 4.09176
O 1.26865 -1.88087 3.21429
O 0.933086 -1.38444 2.50009
O 0.573519 -0.825221 1.74624
O 0.33836 -0.0387636 1.17563
O 0.246979 0.451761 0.376756
O 0.246781 0.513563 -0.57918
O 0.620498 0.208576 -1.43108
O 1.15667 -0.472749 -1.88778
O 1.62116 -1.05294 -2.47568
O 2.19245 -1.35806 -3.18224
O 2.69554 -1.50263 -3.99076
O 2.9926 -1.7167 -4.94906
O 3.03683 -1.13106 -5.68338
O 2.74255 -0.934364 -6.58318
O 2.47328 -0.561743 -7.42092
O 2.20893 -0.114094 -8.1868
O 2.01372 0.787458 -8.54249
O 2.05218 1.76514 -8.66137
O 1.97089 2.68144 -9.03844
O 1.82407 3.64254 -9.0773
O 2.13557 4.55839 -9.09762
O 2.5054 5.42011 -8.89141
O 3.13192 6.13156 -8.76479
O 3.46339 6.96024 -8.40779
O 3.99049 7.86849 -8.29564
O 4.20326 8.4325 -7.48536
O 4.23862 9.17616 -6.82949
O 4.16756 9.59738 -5.90389
O 3.78113 9.83185 -5.07766
O 3.40866 9.72792 -4.20879
O 3.27552 9.61901 -3.24041
O 3.33127 9.25559 -2.35466
O 2.87138 8.84035 -1.59462
O 2.34931 8.16605 -1.16299
O 1.73188 7.34794 -1.06876
O 1.45029 6.42605 -0.889967
O 1.02945 5.58619 -1.00743
O 0.549881 4.93374 -0.59026
O 0.415713 4.18669 -0.0948253
O 0.343545 3.13895 -0.193779
O 0.605186 2.3558 -0.603482
O 0.876339 1.43087 -0.740864
O 1.22567 0.560854 -0.675715
O 1.47606 -0.405375 -0.559791
O 1.69876 -1.26071 -0.268504
O 1.68303 -2.23267 -0.385774
O 1.73838 -3.16161 -0.488719
O 1.70085 -3.77518 0.172678
O 1.45678 -4.68481 0.424905
O 1.12218 -5.52487 0.908698
O 0.794876 -6.41951 0.955519
O 0.796322 -7.49682 0.92894