20
Atoms. Timestep: 0
0 2.00000 0.00000 0.00000
0 1.90211 0.61803 0.00000
0 1.61803 1.17557 0.00000
0 1.17557 1.61803 0.00000
0 0.61803 1.90211 0.00000
0 0.00000 2.00000 0.00000
0 -0.61803 1.90211 0.00000
0 -1.17557 1.61803 0.00000
0 -1.61803 1.17557 0.00000
0 -1.90211 0.61803 0.00000
0 -2.00000 0.00000 0.00000
0 -1.90211 -0.61803 0.00000
0 -1.61803 -1.17557 0.00000
0 -1.17557 -1.61803 0.00000
0 -0.61803 -1.90211 0.00000
0 -0.00000 -2.00000 0.00000
0 0.61803 -1.90211 0.00000
0 1.17557 -1.61803 0.00000
0 1.61803 -1.17557 0.00000
0 1.90211 -0.61803 0.00000
20
Atoms. Timestep: 1
0 2.00000 0.00000 0.00000
0 1.90211 0.60960 0.00000
0 1.61803 1.15954 0.00000
0 1.17557 1.59597 0.00000
0 0.61803 1.87617 0.00000
0 0.00000 1.97272 0.00000
0 -0.61803 1.87617 0.00000
0 -1.17557 1.59597 0.00000
0 -1.61803 1.15954 0.00000
0 -1.90211 0.60960 0.00000
0 -2.00000 0.00000 0.00000
0 -1.90211 -0.60960 0.00000
0 -1.61803 -1.15954 0.00000
0 -1.17557 -1.59597 0.00000
0 -0.61803 -1.87617 0.00000
0 -0.00000 -1.97272 0.00000
0 0.61803 -1.87617 0.00000
0 1.17557 -1.59597 0.00000
0 1.61803 -1.15954 0.00000
0 1.90211 -0.60960 0.00000
20
Atoms. Timestep: 2
0 2.00000 0.00000 0.00000
0 1.90211 0.58455 0.00000
0 1.61803 1.11187 0.00000
0 1.17557 1.53036 0.00000
0 0.61803 1.79905 0.00000
0 0.00000 1.89163 0.00000
0 -0.61803 1.79905 0.00000
0 -1.17557 1.53036 0.00000
0 -1.61803 1.11187 0.00000
0 -1.90211 0.58455 0.00000
0 -2.00000 0.00000 0.00000
0 -1.90211 -0.58455 0.00000
0 -1.61803 -1.11187 0.00000
0 -1.17557 -1.53036 0.00000
0 -0.61803 -1.79905 0.00000
0 -0.00000 -1.89163 0.00000
0 0.61803 -1.79905 0.00000
0 1.17557 -1.53036 0.00000
0 1.61803 -1.11187 0.00000
0 1.90211 -0.58455 0.00000
20
Atoms. Timestep: 3
0 2.00000 0.00000 0.00000
0 1.90211 0.54354 0.00000
0 1.61803 1.03388 0.00000
0 1.17557 1.42302 0.00000
0 0.61803 1.67286 0.00000
0 0.00000 1.75895 0.00000
0 -0.61803 1.67286 0.00000
0 -1.17557 1.42302 0.00000
0 -1.61803 1.03388 0.00000
0 -1.90211 0.54354 0.00000
0 -2.00000 0.00000 0.00000
0 -1.90211 -0.54354 0.00000
0 -1.61803 -1.03388 0.00000
0 -1.17557 -1.42302 0.00000
0 -0.61803 -1.67286 0.00000
0 -0.00000 -1.75895 0.00000
0 0.61803 -1.67286 0.00000
0 1.17557 -1.42302 0.00000
0 1.61803 -1.03388 0.00000
0 1.90211 -0.54354 0.00000
20
Atoms. Timestep: 4
0 2.00000 0.00000 0.00000
0 1.90211 0.48772 0.00000
0 1.61803 0.92769 0.00000
0 1.17557 1.27686 0.00000
0 0.61803 1.50103 0.00000
0 0.00000 1.57828 0.00000
0 -0.61803 1.50103 0.00000
0 -1.17557 1.27686 0.00000
0 -1.61803 0.92769 0.00000
0 -1.90211 0.48772 0.00000
0 -2.00000 0.00000 0.00000
0 -1.90211 -0.48772 0.00000
0 -1.61803 -0.92769 0.00000
0 -1.17557 -1.27686 0.00000
0 -0.61803 -1.50103 0.00000
0 -0.00000 -1.57828 0.00000
0 0.61803 -1.50103 0.00000
0 1.17557 -1.27686 0.00000
0 1.61803 -0.92769 0.00000
0 1.90211 -0.48772 0.00000
20
Atoms. Timestep: 5
0 2.00000 0.00000 0.00000
0 1.90211 0.41858 0.00000
0 1.61803 0.79619 0.00000
0 1.17557 1.09586 0.00000
0 0.61803 1.28827 0.00000
0 0.00000 1.35456 0.00000
0 -0.61803 1.28827 0.00000
0 -1.17557 1.09586 0.00000
0 -1.61803 0.79619 0.00000
0 -1.90211 0.41858 0.00000
0 -2.00000 0.00000 0.00000
0 -1.90211 -0.41858 0.00000
0 -1.61803 -0.79619 0.00000
0 -1.17557 -1.09586 0.00000
0 -0.61803 -1.28827 0.00000
0 -0.00000 -1.35456 0.00000
0 0.61803 -1.28827 0.00000
0 1.17557 -1.09586 0.00000
0 1.61803 -0.79619 0.00000
0 1.90211 -0.41858 0.00000
20
Atoms. Timestep: 6
0 2.00000 0.00000 0.00000
0 1.90211 0.33803 0.00000
0 1.61803 0.64298 0.00000
0 1.17557 0.88498 0.00000
0 0.61803 1.04036 0.00000
0 0.00000 1.09390 0.00000
0 -0.61803 1.04036 0.00000
0 -1.17557 0.88498 0.00000
0 -1.61803 0.64298 0.00000
0 -1.90211 0.33803 0.00000
0 -2.00000 0.00000 0.00000
0 -1.90211 -0.33803 0.00000
0 -1.61803 -0.64298 0.00000
0 -1.17557 -0.88498 0.00000
0 -0.61803 -1.04036 0.00000
0 -0.00000 -1.09390 0.00000
0 0.61803 -1.04036 0.00000
0 1.17557 -0.88498 0.00000
0 1.61803 -0.64298 0.00000
0 1.90211 -0.33803 0.00000
20
Atoms. Timestep: 7
0 2.00000 0.00000 0.00000
0 1.90211 0.24826 0.00000
0 1.61803 0.47222 0.00000
0 1.17557 0.64996 0.00000
0 0.61803 0.76407 0.00000
0 0.00000 0.80339 0.00000
0 -0.61803 0.76407 0.00000
0 -1.17557 0.64996 0.00000
0 -1.61803 0.47222 0.00000
0 -1.90211 0.24826 0.00000
0 -2.00000 0.00000 0.00000
0 -1.90211 -0.24826 0.00000
0 -1.61803 -0.47222 0.00000
0 -1.17557 -0.64996 0.00000
0 -0.61803 -0.76407 0.00000
0 -0.00000 -0.80339 0.00000
0 0.61803 -0.76407 0.00000
0 1.17557 -0.64996 0.00000
0 1.61803 -0.47222 0.00000
0 1.90211 -0.24826 0.00000
20
Atoms. Timestep: 8
0 2.00000 0.00000 0.00000
0 1.90211 0.15172 0.00000
0 1.61803 0.28859 0.00000
0 1.17557 0.39720 0.00000
0 0.61803 0.46694 0.00000
0 0.00000 0.49097 0.00000
0 -0.61803 0.46694 0.00000
0 -1.17557 0.39720 0.00000
0 -1.61803 0.28859 0.00000
0 -1.90211 0.15172 0.00000
0 -2.00000 0.00000 0.00000
0 -1.90211 -0.15172 0.00000
0 -1.61803 -0.28859 0.00000
0 -1.17557 -0.39720 0.00000
0 -0.61803 -0.46694 0.00000
0 -0.00000 -0.49097 0.00000
0 0.61803 -0.46694 0.00000
0 1.17557 -0.39720 0.00000
0 1.61803 -0.28859 0.00000
0 1.90211 -0.15172 0.00000
20
Atoms. Timestep: 9
0 2.00000 0.00000 0.00000
0 1.90211 0.05104 0.00000
0 1.61803 0.09708 0.00000
0 1.17557 0.13362 0.00000
0 0.61803 0.15708 0.00000
0 0.00000 0.16516 0.00000
0 -0.61803 0.15708 0.00000
0 -1.17557 0.13362 0.00000
0 -1.61803 0.09708 0.00000
0 -1.90211 0.05104 0.00000
0 -2.00000 0.00000 0.00000
0 -1.90211 -0.05104 0.00000
0 -1.61803 -0.09708 0.00000
0 -1.17557 -0.13362 0.00000
0 -0.61803 -0.15708 0.00000
0 -0.00000 -0.16516 0.00000
0 0.61803 -0.15708 0.00000
0 1.17557 -0.13362 0.00000
0 1.61803 -0.09708 0.00000
0 1.90211 -0.05104 0.00000
20
Atoms. Timestep: 10
0 2.00000 0.00000 0.21053
0 1.90211 0.61803 0.21053
0 1.61803 1.17557 0.21053
0 1.17557 1.61803 0.21053
0 0.61803 1.90211 0.21053
0 0.00000 2.00000 0.21053
0 -0.61803 1.90211 0.21053
0 -1.17557 1.61803 0.21053
0 -1.61803 1.17557 0.21053
0 -1.90211 0.61803 0.21053
0 -2.00000 0.00000 0.21053
0 -1.90211 -0.61803 0.21053
0 -1.61803 -1.17557 0.21053
0 -1.17557 -1.61803 0.21053
0 -0.61803 -1.90211 0.21053
0 -0.00000 -2.00000 0.21053
0 0.61803 -1.90211 0.21053
0 1.17557 -1.61803 0.21053
0 1.61803 -1.17557 0.21053
0 1.90211 -0.61803 0.21053
20
Atoms. Timestep: 11
0 2.00000 0.00000 0.63158
0 1.90211 0.61803 0.63158
0 1.61803 1.17557 0.63158
0 1.17557 1.61803 0.63158
0 0.61803 1.90211 0.63158
0 0.00000 2.00000 0.63158
0 -0.61803 1.90211 0.63158
0 -1.17557 1.61803 0.63158
0 -1.61803 1.17557 0.63158
0 -1.90211 0.61803 0.63158
0 -2.00000 0.00000 0.63158
0 -1.90211 -0.61803 0.63158
0 -1.61803 -1.17557 0.63158
0 -1.17557 -1.61803 0.63158
0 -0.61803 -1.90211 0.63158
0 -0.00000 -2.00000 0.63158
0 0.61803 -1.90211 0.63158
0 1.17557 -1.61803 0.63158
0 1.61803 -1.17557 0.63158
0 1.90211 -0.61803 0.63158
20
Atoms. Timestep: 12
0 2.00000 0.00000 1.05263
0 1.90211 0.61803 1.05263
0 1.61803 1.17557 1.05263
0 1.17557 1.61803 1.05263
0 0.61803 1.90211 1.05263
0 0.00000 2.00000 1.05263
0 -0.61803 1.90211 1.05263
0 -1.17557 1.61803 1.05263
0 -1.61803 1.17557 1.05263
0 -1.90211 0.61803 1.05263
0 -2.00000 0.00000 1.05263
0 -1.90211 -0.61803 1.05263
0 -1.61803 -1.17557 1.05263
0 -1.17557 -1.61803 1.05263
0 -0.61803 -1.90211 1.05263
0 -0.00000 -2.00000 1.05263
0 0.61803 -1.90211 1.05263
0 1.17557 -1.61803 1.05263
0 1.61803 -1.17557 1.05263
0 1.90211 -0.61803 1.05263
20
Atoms. Timestep: 13
0 2.00000 0.00000 1.47368
0 1.90211 0.61803 1.47368
0 1.61803 1.17557 1.47368
0 1.17557 1.61803 1.47368
0 0.61803 1.90211 1.47368
0 0.00000 2.00000 1.47368
0 -0.61803 1.90211 1.47368
0 -1.17557 1.61803 1.47368
0 -1.61803 1.17557 1.47368
0 -1.90211 0.61803 1.47368
0 -2.00000 0.00000 1.47368
0 -1.90211 -0.61803 1.47368
0 -1.61803 -1.17557 1.47368
0 -1.17557 -1.61803 1.47368
0 -0.61803 -1.90211 1.47368
0 -0.00000 -2.00000 1.47368
0 0.61803 -1.90211 1.47368
0 1.17557 -1.61803 1.47368
0 1.61803 -1.17557 1.47368
0 1.90211 -0.61803 1.47368
20
Atoms. Timestep: 14
0 2.00000 0.00000 1.89474
0 1.90211 0.61803 1.89474
0 1.61803 1.17557 1.89474
0 1.17557 1.61803 1.89474
0 0.61803 1.90211 1.89474
0 0.00000 2.00000 1.89474
0 -0.61803 1.90211 1.89474
0 -1.17557 1.61803 1.89474
0 -1.61803 1.17557 1.89474
0 -1.90211 0.61803 1.89474
0 -2.00000 0.00000 1.89474
0 -1.90211 -0.61803 1.89474
0 -1.61803 -1.17557 1.89474
0 -1.17557 -1.61803 1.89474
0 -0.61803 -1.90211 1.89474
0 -0.00000 -2.00000 1.89474
0 0.61803 -1.90211 1.89474
0 1.17557 -1.61803 1.89474
0 1.61803 -1.17557 1.89474
0 1.90211 -0.61803 1.89474
20
Atoms. Timestep: 15
0 2.00000 0.00000 2.31579
0 1.90211 0.61803 2.31579
0 1.61803 1.17557 2.31579
0 1.17557 1.61803 2.31579
0 0.61803 1.90211 2.31579
0 0.00000 2.00000 2.31579
0 -0.61803 1.90211 2.31579
0 -1.17557 1.61803 2.31579
0 -1.61803 1.17557 2.31579
0 -1.90211 0.61803 2.31579
0 -2.00000 0.00000 2.31579
0 -1.90211 -0.61803 2.31579
0 -1.61803 -1.17557 2.31579
0 -1.17557 -1.61803 2.31579
0 -0.61803 -1.90211 2.31579
0 -0.00000 -2.00000 2.31579
0 0.61803 -1.90211 2.31579
0 1.17557 -1.61803 2.31579
0 1.61803 -1.17557 2.31579
0 1.90211 -0.61803 2.31579
20
Atoms. Timestep: 16
0 2.00000 0.00000 2.73684
0 1.90211 0.61803 2.73684
0 1.61803 1.17557 2.73684
0 1.17557 1.61803 2.73684
0 0.61803 1.90211 2.73684
0 0.00000 2.00000 2.73684
0 -0.61803 1.90211 2.73684
0 -1.17557 1.61803 2.73684
0 -1.61803 1.17557 2.73684
0 -1.90211 0.61803 2.73684
0 -2.00000 0.00000 2.73684
0 -1.90211 -0.61803 2.73684
0 -1.61803 -1.17557 2.73684
0 -1.17557 -1.61803 2.73684
0 -0.61803 -1.90211 2.73684
0 -0.00000 -2.00000 2.73684
0 0.61803 -1.90211 2.73684
0 1.17557 -1.61803 2.73684
0 1.61803 -1.17557 2.73684
0 1.90211 -0.61803 2.73684
20
Atoms. Timestep: 17
0 2.00000 0.00000 3.15789
0 1.90211 0.61803 3.15789
0 1.61803 1.17557 3.15789
0 1.17557 1.61803 3.15789
0 0.61803 1.90211 3.15789
0 0.00000 2.00000 3.15789
0 -0.61803 1.90211 3.15789
0 -1.17557 1.61803 3.15789
0 -1.61803 1.17557 3.15789
0 -1.90211 0.61803 3.15789
0 -2.00000 0.00000 3.15789
0 -1.90211 -0.61803 3.15789
0 -1.61803 -1.17557 3.15789
0 -1.17557 -1.61803 3.15789
0 -0.61803 -1.90211 3.15789
0 -0.00000 -2.00000 3.15789
0 0.61803 -1.90211 3.15789
0 1.17557 -1.61803 3.15789
0 1.61803 -1.17557 3.15789
0 1.90211 -0.61803 3.15789
20
Atoms. Timestep: 18
0 2.00000 0.00000 3.57895
0 1.90211 0.61803 3.57895
0 1.61803 1.17557 3.57895
0 1.17557 1.61803 3.57895
0 0.61803 1.90211 3.57895
0 0.00000 2.00000 3.57895
0 -0.61803 1.90211 3.57895
0 -1.17557 1.61803 3.57895
0 -1.61803 1.17557 3.57895
0 -1.90211 0.61803 3.57895
0 -2.00000 0.00000 3.57895
0 -1.90211 -0.61803 3.57895
0 -1.61803 -1.17557 3.57895
0 -1.17557 -1.61803 3.57895
0 -0.61803 -1.90211 3.57895
0 -0.00000 -2.00000 3.57895
0 0.61803 -1.90211 3.57895
0 1.17557 -1.61803 3.57895
0 1.61803 -1.17557 3.57895
0 1.90211 -0.61803 3.57895
20
Atoms. Timestep: 19
0 2.00000 0.00000 4.00000
0 1.90211 0.61803 4.00000
0 1.61803 1.17557 4.00000
0 1.17557 1.61803 4.00000
0 0.61803 1.90211 4.00000
0 0.00000 2.00000 4.00000
0 -0.61803 1.90211 4.00000
0 -1.17557 1.61803 4.00000
0 -1.61803 1.17557 4.00000
0 -1.90211 0.61803 4.00000
0 -2.00000 0.00000 4.00000
0 -1.90211 -0.61803 4.00000
0 -1.61803 -1.17557 4.00000
0 -1.17557 -1.61803 4.00000
0 -0.61803 -1.90211 4.00000
0 -0.00000 -2.00000 4.00000
0 0.61803 -1.90211 4.00000
0 1.17557 -1.61803 4.00000
0 1.61803 -1.17557 4.00000
0 1.90211 -0.61803 4.00000