20
Atoms. Timestep: 0
O 5.00000 5.00000 7.00000
O 6.54508 6.46946 6.90211
O 7.93893 7.37764 6.61803
O 9.04508 7.37764 6.17557
O 9.75528 6.46946 5.61803
O 10.00000 5.00000 5.00000
O 9.75528 3.53054 4.38197
O 9.04508 2.62236 3.82443
O 7.93893 2.62236 3.38197
O 6.54508 3.53054 3.09789
O 5.00000 5.00000 3.00000
O 3.45492 6.46946 3.09789
O 2.06107 7.37764 3.38197
O 0.95492 7.37764 3.82443
O 0.24472 6.46946 4.38197
O 0.00000 5.00000 5.00000
O 0.24472 3.53054 5.61803
O 0.95492 2.62236 6.17557
O 2.06107 2.62236 6.61803
O 3.45492 3.53054 6.90211
20
Atoms. Timestep: 1
O 5.26316 5.00000 7.15789
O 6.69083 6.49745 7.06516
O 7.92115 7.49801 6.79603
O 8.87046 7.65264 6.37686
O 9.48447 6.93710 5.84866
O 9.72066 5.65432 5.26316
O 9.53942 4.31120 4.67765
O 8.91199 3.41803 4.14946
O 7.84411 3.28908 3.73028
O 6.40371 3.92161 3.46116
O 4.73684 5.00000 3.36842
O 3.05829 6.02307 3.46116
O 1.61348 6.50481 3.73028
O 0.62087 6.17036 4.14946
O 0.21445 5.07116 4.67765
O 0.40810 3.57402 5.26316
O 1.09706 2.22806 5.84866
O 2.09774 1.55994 6.37686
O 3.21161 1.87537 6.79603
O 4.28834 3.14236 7.06516
20
Atoms. Timestep: 2
O 5.52632 5.00000 7.31579
O 6.83877 6.52241 7.22821
O 7.90902 7.60586 6.97403
O 8.70015 7.90118 6.57814
O 9.20679 7.36502 6.07929
O 9.41267 6.26266 5.52632
O 9.26777 5.05025 4.97334
O 8.70146 4.18553 4.47449
O 7.66854 3.94359 4.07860
O 6.20667 4.31106 3.82443
O 4.47368 5.00000 3.73684
O 2.73967 5.57424 3.82443
O 1.32676 5.63636 4.07860
O 0.51404 4.99954 4.47449
O 0.44334 3.77562 4.97334
O 1.06551 2.34445 5.52632
O 2.15338 1.21681 6.07929
O 3.38105 0.84506 6.57814
O 4.44134 1.45473 6.97403
O 5.15494 2.96110 7.22821
20
Atoms. Timestep: 3
O 5.78947 5.00000 7.47368
O 6.98900 6.54440 7.39125
O 7.90310 7.70155 7.15203
O 8.53592 8.12384 6.77943
O 8.92592 7.75334 6.30992
O 9.08169 6.82310 5.78947
O 8.94732 5.74210 5.26902
O 8.42039 4.91514 4.79952
O 7.41772 4.57395 4.42692
O 5.95704 4.68956 4.18769
O 4.21053 5.00000 4.10526
O 2.49478 5.13855 4.18769
O 1.18940 4.80611 4.42692
O 0.61012 3.91394 4.79952
O 0.88709 2.63730 5.26902
O 1.90222 1.35881 5.78947
O 3.31810 0.52654 6.30992
O 4.69401 0.48581 6.77943
O 5.64600 1.35258 7.15203
O 5.98716 2.97606 7.39125
20
Atoms. Timestep: 4
O 6.05263 5.00000 7.63158
O 7.14158 6.56346 7.55430
O 7.90396 7.78543 7.33003
O 8.37955 8.32134 6.98071
O 8.64550 8.10249 6.54055
O 8.73349 7.33434 6.05263
O 8.58553 6.38215 5.56471
O 8.07691 5.59835 5.12455
O 7.09882 5.16947 4.77524
O 5.65938 5.04867 4.55096
O 3.94737 5.00000 4.47368
O 2.31642 4.72991 4.55096
O 1.18316 4.04342 4.77524
O 0.87496 2.95361 5.12455
O 1.49102 1.69592 5.56471
O 2.84099 0.64276 6.05263
O 4.49516 0.15825 6.54055
O 5.93303 0.45747 6.98071
O 6.73332 1.53007 7.33003
O 6.72749 3.15613 7.55430
20
Atoms. Timestep: 5
O 6.31579 5.00000 7.78947
O 7.29657 6.57968 7.71735
O 7.91212 7.85789 7.50803
O 8.23271 8.49452 7.18200
O 8.36907 8.41320 6.77118
O 8.37390 7.79572 6.31579
O 8.19032 6.96680 5.86040
O 7.68007 6.22805 5.44958
O 6.72047 5.72096 5.12355
O 5.31955 5.38106 4.91423
O 3.68421 5.00000 4.84211
O 2.19489 4.36002 4.91423
O 1.28440 3.37192 5.12355
O 1.26720 2.14799 5.44958
O 2.19434 0.97478 5.86040
O 3.80374 0.19962 6.31579
O 5.59608 0.08613 6.77118
O 7.01086 0.70721 7.18200
O 7.63163 1.92380 7.50803
O 7.33415 3.45492 7.71735
20
Atoms. Timestep: 6
O 6.57895 5.00000 7.94737
O 7.45405 6.59311 7.88039
O 7.92812 7.91934 7.68602
O 8.09703 8.64431 7.38329
O 8.10010 8.68648 7.00181
O 8.00873 8.20719 6.57895
O 7.76986 7.49352 6.15608
O 7.23972 6.79859 5.77461
O 6.29248 6.22089 5.47187
O 4.94446 5.68075 5.27750
O 3.42105 5.00000 5.21053
O 2.11859 4.03798 5.27750
O 1.46561 2.80861 5.47187
O 1.74119 1.51482 5.77461
O 2.93473 0.48025 6.15608
O 4.71749 0.01168 6.57895
O 6.54700 0.26179 7.00181
O 7.86363 1.16130 7.38329
O 8.29568 2.45435 7.68602
O 7.78456 3.81735 7.88039
20
Atoms. Timestep: 7
O 6.84211 5.00000 8.10526
O 7.61408 6.60381 8.04344
O 7.95243 7.97022 7.86402
O 7.97407 8.77172 7.58457
O 7.84193 8.92364 7.23244
O 7.64368 8.56931 6.84211
O 7.33247 7.96085 6.45177
O 6.76624 7.30587 6.09964
O 5.82553 6.66356 5.82019
O 4.54180 5.94318 5.64077
O 3.15789 5.00000 5.57895
O 2.07461 3.76998 5.64077
O 1.69706 2.36331 5.82019
O 2.25001 1.05975 6.09964
O 3.65273 0.20239 6.45177
O 5.51977 0.04307 6.84211
O 7.29403 0.62004 7.23244
O 8.45516 1.73384 7.58457
O 8.70928 3.03607 7.86402
O 8.07637 4.18680 8.04344
20
Atoms. Timestep: 8
O 7.10526 5.00000 8.26316
O 7.77673 6.61185 8.20649
O 7.98555 8.01098 8.04202
O 7.86532 8.87789 7.78586
O 7.59773 9.12628 7.46307
O 7.28435 8.88325 7.10526
O 6.88650 8.36839 6.74745
O 6.27033 7.74740 6.42467
O 5.33088 7.04518 6.16851
O 4.11978 6.16538 6.00404
O 2.89474 5.00000 5.94737
O 2.04942 3.55915 6.00404
O 1.94860 2.03855 6.16851
O 2.74846 0.77671 6.42467
O 4.29579 0.11677 6.74745
O 6.16280 0.24381 7.10526
O 7.80652 1.08599 7.46307
O 8.77837 2.33609 7.78586
O 8.88471 3.58683 8.04202
O 8.22596 4.51192 8.20649
20
Atoms. Timestep: 9
O 7.36842 5.00000 8.42105
O 7.94205 6.61730 8.36953
O 8.02792 8.04210 8.22002
O 7.77216 8.96404 7.98714
O 7.37055 9.29623 7.69370
O 6.93612 9.15074 7.36842
O 6.44019 8.71680 7.04314
O 5.76279 8.12230 6.74970
O 4.82006 7.36390 6.51682
O 3.68684 6.34596 6.36731
O 2.63158 5.00000 6.31579
O 2.02953 3.40558 6.36731
O 2.19125 1.82975 6.51682
O 3.19585 0.64899 6.74970
O 4.82153 0.18707 7.04314
O 6.61635 0.55489 7.36842
O 8.07811 1.58247 7.69370
O 8.85368 2.88558 7.98714
O 8.85895 4.03672 8.22002
O 8.26490 4.75237 8.36953
20
Atoms. Timestep: 10
O 7.63158 5.00000 8.57895
O 8.11011 6.62023 8.53258
O 8.07999 8.06405 8.39802
O 7.69592 9.03146 8.18843
O 7.16321 9.43559 7.92433
O 6.60409 9.37408 7.63158
O 6.00152 9.00779 7.33883
O 5.25427 8.43129 7.07473
O 4.30454 7.61985 6.86514
O 3.25134 6.48510 6.73058
O 2.36842 5.00000 6.68421
O 2.00212 3.30644 6.73058
O 2.39883 1.72592 6.86514
O 3.55834 0.65092 7.07473
O 5.20027 0.36857 7.33883
O 6.86902 0.91371 7.63158
O 8.12551 2.03731 7.92433
O 8.72477 3.31408 8.18843
O 8.68750 4.33495 8.39802
O 8.23466 4.88286 8.53258
20
Atoms. Timestep: 11
O 7.89474 5.00000 8.73684
O 8.28097 6.62071 8.69563
O 8.14217 8.07736 8.57601
O 7.63781 9.08154 8.38971
O 6.97836 9.54666 8.15496
O 6.29308 9.55609 7.89474
O 5.57813 9.24404 7.63451
O 4.75508 8.67663 7.39976
O 3.79543 7.81503 7.21346
O 2.82131 6.58455 7.09385
O 2.10526 5.00000 7.05263
O 1.95566 3.25624 7.09385
O 2.54927 1.71055 7.21346
O 3.81075 0.75005 7.39976
O 5.41641 0.61196 7.63451
O 6.92794 1.25959 7.89474
O 7.98529 2.38980 8.15496
O 8.45222 3.57354 8.38971
O 8.43648 4.45409 8.57601
O 8.18058 4.89495 8.69563
20
Atoms. Timestep: 12
O 8.15789 5.00000 8.89474
O 8.45469 6.61881 8.85867
O 8.21485 8.08255 8.75401
O 7.59897 9.11573 8.59100
O 6.81841 9.63199 8.38559
O 6.00754 9.70004 8.15789
O 5.17718 9.42915 7.93020
O 4.27493 8.86206 7.72479
O 3.30316 7.95326 7.56178
O 2.40417 6.64746 7.45712
O 1.84211 5.00000 7.42105
O 1.88041 3.24723 7.45712
O 2.62573 1.76285 7.56178
O 3.93785 0.90968 7.72479
O 5.46884 0.86738 7.93020
O 6.81698 1.53890 8.15789
O 7.70893 2.59567 8.38559
O 8.10574 3.63973 8.59100
O 8.17394 4.39138 8.75401
O 8.14565 4.79674 8.85867
20
Atoms. Timestep: 13
O 8.42105 5.00000 9.05263
O 8.63133 6.61460 9.02172
O 8.29839 8.08017 8.93201
O 7.58041 9.13557 8.79229
O 6.68552 9.69428 8.61622
O 5.75150 9.80970 8.42105
O 4.80523 9.56762 8.22588
O 3.82277 8.99267 8.04982
O 2.83725 8.03999 7.91009
O 2.00646 6.67826 7.82039
O 1.57895 5.00000 7.78947
O 1.76884 3.26986 7.82039
O 2.61734 1.85918 7.91009
O 3.93481 1.09160 8.04982
O 5.37018 1.08834 8.22588
O 6.57355 1.70934 8.42105
O 7.35673 2.63039 8.61622
O 7.75585 3.51312 8.79229
O 7.96148 4.16709 8.93201
O 8.16499 4.61033 9.02172
20
Atoms. Timestep: 14
O 8.68421 5.00000 9.21053
O 8.81093 6.60815 9.18477
O 8.39313 8.07076 9.11001
O 7.58306 9.14262 8.99357
O 6.58162 9.73643 8.84685
O 5.52855 9.88918 8.68421
O 4.46819 9.66469 8.52157
O 3.40662 9.07480 8.37485
O 2.40601 8.08214 8.25841
O 1.63370 6.68248 8.18365
O 1.31579 5.00000 8.15789
O 1.61595 3.31334 8.18365
O 2.51959 1.97455 8.25841
O 3.80715 1.25878 8.37485
O 5.14505 1.23525 8.52157
O 6.24450 1.74303 8.68421
O 6.99116 2.49032 8.84685
O 7.46591 3.21708 8.99357
O 7.84712 3.82029 9.11001
O 8.26176 4.36771 9.18477
20
Atoms. Timestep: 15
O 8.94737 5.00000 9.36842
O 8.99355 6.59955 9.34781
O 8.49940 8.05491 9.28801
O 7.60773 9.13853 9.19486
O 6.50837 9.76147 9.07748
O 5.34179 9.94297 8.94737
O 4.17117 9.72632 8.81726
O 3.03336 9.11586 8.69988
O 2.01637 8.08788 8.60673
O 1.29017 6.66651 8.54692
O 1.05263 5.00000 8.52632
O 1.41944 3.36623 8.54692
O 2.33441 2.08423 8.60673
O 3.56982 1.37799 8.69988
O 4.82751 1.27829 8.81726
O 5.88123 1.62837 8.94737
O 6.67023 2.19190 9.07748
O 7.28529 2.79371 9.19486
O 7.86014 3.40246 9.28801
O 8.44481 4.10548 9.34781
20
Atoms. Timestep: 16
O 9.21053 5.00000 9.52632
O 9.17925 6.58886 9.51086
O 8.61748 8.03320 9.46601
O 7.65512 9.12499 9.39614
O 6.46715 9.77258 9.30811
O 5.19380 9.97584 9.21053
O 3.91845 9.75902 9.11294
O 2.70862 9.12416 9.02491
O 1.67369 8.06637 8.95505
O 0.97876 6.63738 8.91019
O 0.78947 5.00000 8.89474
O 1.17977 3.41707 8.91019
O 2.06981 2.16525 8.95505
O 3.24582 1.42200 9.02491
O 4.45783 1.19946 9.11294
O 5.53470 1.37031 9.21053
O 6.44166 1.76875 9.30811
O 7.24434 2.29769 9.39614
O 8.00842 2.96997 9.46601
O 8.70840 3.85920 9.51086
20
Atoms. Timestep: 17
O 9.47368 5.00000 9.68421
O 9.36808 6.57617 9.67391
O 8.74763 8.00622 9.64400
O 7.72582 9.10372 9.59743
O 6.45904 9.77301 9.53874
O 5.08663 9.99282 9.47368
O 3.71339 9.76980 9.40863
O 2.43669 9.10873 9.34994
O 1.38163 8.02749 9.30336
O 0.70097 6.60248 9.27346
O 0.52632 5.00000 9.26316
O 0.90004 3.45500 9.27346
O 1.73924 2.19781 9.30336
O 2.86425 1.37142 9.34994
O 4.07884 0.99367 9.40863
O 5.25050 0.98920 9.47368
O 6.33809 1.26730 9.53874
O 7.35169 1.78904 9.59743
O 8.27867 2.57616 9.64400
O 9.03399 3.65822 9.67391
20
Atoms. Timestep: 18
O 9.73684 5.00000 9.84211
O 9.56007 6.56155 9.83695
O 8.89010 7.97459 9.82200
O 7.82030 9.07649 9.79871
O 6.48485 9.76611 9.76937
O 5.02173 9.99910 9.73684
O 3.55841 9.76602 9.70431
O 2.22040 9.07910 9.67497
O 1.14202 7.98153 9.65168
O 0.45678 6.56928 9.63673
O 0.26316 5.00000 9.63158
O 0.58581 3.47030 9.63673
O 1.36058 2.16647 9.65168
O 2.45797 1.21594 9.67497
O 3.73223 0.66879 9.70431
O 5.06460 0.51826 9.73684
O 6.37411 0.74113 9.76937
O 7.59413 1.32542 9.79871
O 8.63920 2.26415 9.82200
O 9.39376 3.52146 9.83695
20
Atoms. Timestep: 19
O 10.00000 5.00000 10.00000
O 9.75528 6.54508 10.00000
O 9.04508 7.93893 10.00000
O 7.93893 9.04508 10.00000
O 6.54508 9.75528 10.00000
O 5.00000 10.00000 10.00000
O 3.45492 9.75528 10.00000
O 2.06107 9.04508 10.00000
O 0.95492 7.93893 10.00000
O 0.24472 6.54508 10.00000
O 0.00000 5.00000 10.00000
O 0.24472 3.45492 10.00000
O 0.95492 2.06107 10.00000
O 2.06107 0.95492 10.00000
O 3.45492 0.24472 10.00000
O 5.00000 0.00000 10.00000
O 6.54508 0.24472 10.00000
O 7.93893 0.95492 10.00000
O 9.04508 2.06107 10.00000
O 9.75528 3.45492 10.00000
