100
Atoms. Timestep: 0
O 4.88697 3.06449 3.36763
O 4.94859 3.06949 4.35338
O 4.839 3.02243 5.33332
O 4.56548 2.92092 6.27594
O 4.14116 2.76396 7.15246
O 3.58252 2.5529 7.9372
O 2.90983 2.29049 8.60854
O 2.14421 1.98136 9.14677
O 1.3095 1.63185 9.53674
O 0.431787 1.24942 9.76887
O -0.462042 0.841525 9.84051
O -1.34598 0.415953 9.75032
O -2.19304 -0.0195195 9.49825
O -2.97718 -0.455383 9.09025
O -3.67389 -0.881472 8.53815
O -4.26152 -1.2882 7.85887
O -4.71941 -1.66704 7.07183
O -5.03061 -2.00987 6.2007
O -5.18224 -2.30986 5.27284
O -5.16489 -2.56251 4.31851
O -4.97547 -2.76573 3.37042
O -4.61834 -2.91905 2.46112
O -4.10993 -3.02852 1.61877
O -3.48058 -3.10252 0.853603
O -2.76968 -3.15225 0.153779
O -2.00675 -3.18398 -0.497127
O -1.21329 -3.19683 -1.11574
O -0.406147 -3.18352 -1.71694
O 0.400405 -3.13094 -2.31308
O 1.19286 -3.01962 -2.91309
O 1.95624 -2.82454 -3.5208
O 2.67165 -2.51584 -4.13149
O 3.31507 -2.0672 -4.7333
O 3.86759 -1.4779 -5.30149
O 4.31615 -0.760897 -5.81001
O 4.6515 0.0627812 -6.23657
O 4.86805 0.967421 -6.56343
O 4.96373 1.92476 -6.77758
O 4.93999 2.90543 -6.87079
O 4.80283 3.88053 -6.8394
O 4.55959 4.82228 -6.68336
O 4.21946 5.7038 -6.40558
O 3.7954 6.50174 -6.01394
O 3.30264 7.19598 -5.51894
O 2.75746 7.7696 -4.93267
O 2.17646 8.20732 -4.26875
O 1.57717 8.49551 -3.54203
O 0.979085 8.62383 -2.76953
O 0.401908 8.58785 -1.97134
O -0.135317 8.38912 -1.16891
O -0.613465 8.03243 -0.383704
O -1.0125 7.52599 0.362807
O -1.31375 6.88333 1.04856
O -1.50194 6.12641 1.6543
O -1.56423 5.28332 2.16651
O -1.49597 4.38642 2.57914
O -1.30827 3.46577 2.89852
O -1.03076 2.53981 3.14548
O -0.691999 1.61604 3.33963
O -0.317291 0.694972 3.49628
O 0.0704095 -0.227017 3.62345
O 0.448685 -1.15516 3.72035
O 0.794924 -2.09488 3.78083
O 1.08527 -3.04985 3.79147
O 1.29325 -4.01857 3.73182
O 1.39017 -4.99056 3.57516
O 1.3626 -5.94081 3.30608
O 1.21442 -6.83734 2.92078
O 0.956166 -7.64953 2.42435
O 0.603145 -8.35089 1.82836
O 0.173229 -8.92045 1.14882
O -0.315296 -9.34235 0.404691
O -0.843361 -9.60662 -0.383545
O -1.3925 -9.70756 -1.19466
O -1.94528 -9.64248 -2.00663
O -2.48418 -9.41456 -2.79805
O -2.99246 -9.03213 -3.54908
O -3.45467 -8.50771 -4.24192
O -3.85709 -7.85738 -4.86156
O -4.18782 -7.09866 -5.39439
O -4.4366 -6.25068 -5.82812
O -4.59446 -5.33457 -6.15246
O -4.65348 -4.37367 -6.35922
O -4.60618 -3.39352 -6.44232
O -4.44849 -2.42215 -6.39924
O -4.17866 -1.48936 -6.23149
O -3.79994 -0.62541 -5.94508
O -3.31884 0.140671 -5.55196
O -2.74572 0.785506 -5.07175
O -2.09538 1.29628 -4.52989
O -1.38863 1.6808 -3.94898
O -0.646143 1.96744 -3.34711
O 0.116328 2.18344 -2.7325
O 0.885559 2.35208 -2.10592
O 1.64857 2.49183 -1.46297
O 2.38965 2.61551 -0.794228
O 3.08969 2.73068 -0.086701
O 3.72332 2.83824 0.675142
O 4.2576 2.93561 1.50472
O 4.65332 3.01596 2.40823
100
Atoms. Timestep: 10
O 4.95037 3.08093 3.46635
O 4.9371 3.06615 4.41668
O 4.83509 3.02109 5.35585
O 4.56467 2.92057 6.28054
O 4.14088 2.76386 7.15304
O 3.58249 2.55288 7.93726
O 2.90984 2.2905 8.60851
O 2.14426 1.98138 9.14665
O 1.30953 1.63185 9.5364
O 0.431723 1.24941 9.76912
O -0.462178 0.841472 9.84061
O -1.34597 0.415929 9.75028
O -2.19308 -0.0195287 9.49824
O -2.97718 -0.455369 9.09025
O -3.67388 -0.881478 8.53816
O -4.26151 -1.2882 7.85886
O -4.71941 -1.66704 7.07182
O -5.03061 -2.00988 6.20072
O -5.18222 -2.30983 5.27286
O -5.16492 -2.56253 4.31854
O -4.97543 -2.7657 3.37037
O -4.61831 -2.91917 2.46117
O -4.10989 -3.02844 1.61873
O -3.48059 -3.10257 0.853618
O -2.76968 -3.15221 0.153788
O -2.00679 -3.18402 -0.497139
O -1.21344 -3.1971 -1.11585
O -0.406192 -3.18355 -1.71691
O 0.400387 -3.13093 -2.31308
O 1.19282 -3.01965 -2.9131
O 1.95629 -2.82459 -3.52085
O 2.67153 -2.5162 -4.13189
O 3.31504 -2.06725 -4.73333
O 3.86759 -1.47792 -5.30144
O 4.31614 -0.760912 -5.81002
O 4.65152 0.0628193 -6.2366
O 4.86804 0.967441 -6.56342
O 4.96373 1.92473 -6.77759
O 4.93999 2.90542 -6.87078
O 4.80283 3.88055 -6.83942
O 4.55959 4.82229 -6.68333
O 4.21946 5.70379 -6.40557
O 3.7954 6.50173 -6.01397
O 3.30264 7.19598 -5.51893
O 2.75748 7.76958 -4.93267
O 2.17647 8.20732 -4.26876
O 1.57715 8.49553 -3.54202
O 0.97908 8.62383 -2.76951
O 0.401902 8.58785 -1.97134
O -0.135316 8.38913 -1.16894
O -0.613443 8.03243 -0.383704
O -1.01235 7.52587 0.362913
O -1.31376 6.88329 1.04857
O -1.50193 6.12643 1.65428
O -1.56423 5.28335 2.16651
O -1.49597 4.3864 2.57915
O -1.30825 3.46575 2.89854
O -1.03075 2.53983 3.14545
O -0.692007 1.61603 3.33962
O -0.317261 0.694961 3.4963
O 0.0704073 -0.226994 3.62344
O 0.448674 -1.15516 3.72036
O 0.794941 -2.09488 3.78082
O 1.08527 -3.04982 3.79143
O 1.29324 -4.01854 3.73181
O 1.39018 -4.99057 3.57515
O 1.36259 -5.94082 3.30608
O 1.21441 -6.83735 2.92079
O 0.956178 -7.64953 2.42435
O 0.603143 -8.35087 1.82835
O 0.173254 -8.92046 1.14882
O -0.315397 -9.34226 0.40472
O -0.843323 -9.60665 -0.383549
O -1.39251 -9.70748 -1.19466
O -1.94528 -9.64252 -2.00666
O -2.48419 -9.41456 -2.79803
O -2.99244 -9.03215 -3.5491
O -3.45467 -8.5077 -4.2419
O -3.85708 -7.85741 -4.86159
O -4.18783 -7.09865 -5.39437
O -4.4366 -6.25065 -5.82811
O -4.59445 -5.33459 -6.15247
O -4.65349 -4.37371 -6.35923
O -4.60618 -3.39351 -6.4423
O -4.44848 -2.4221 -6.39924
O -4.17866 -1.48937 -6.2315
O -3.79995 -0.625451 -5.94508
O -3.31887 0.140692 -5.55195
O -2.7457 0.785513 -5.07175
O -2.09536 1.29629 -4.52987
O -1.38863 1.68081 -3.94897
O -0.646132 1.96744 -3.34711
O 0.116319 2.18345 -2.7325
O 0.885542 2.35201 -2.10588
O 1.64852 2.49181 -1.46298
O 2.3893 2.61548 -0.794595
O 3.08741 2.73031 -0.0901158
O 3.71017 2.83599 0.657745
O 4.21826 2.92794 1.45397
O 4.66193 3.01593 2.291
100
Atoms. Timestep: 20
O 5.10339 3.12327 3.5801
O 4.96805 3.07544 4.52708
O 4.82767 3.01952 5.46914
O 4.55015 2.91514 6.38009
O 4.1197 2.75602 7.20781
O 3.57208 2.54903 7.95258
O 2.90705 2.28947 8.61039
O 2.1434 1.98104 9.14591
O 1.30916 1.63169 9.53589
O 0.431479 1.24934 9.76957
O -0.462477 0.841381 9.84161
O -1.34643 0.415734 9.75073
O -2.19328 -0.019622 9.49821
O -2.97721 -0.455371 9.09022
O -3.6739 -0.881493 8.53814
O -4.26154 -1.28818 7.85889
O -4.71939 -1.66704 7.07185
O -5.03061 -2.00987 6.20072
O -5.18222 -2.30983 5.27282
O -5.16493 -2.56251 4.31851
O -4.97551 -2.76576 3.37042
O -4.61834 -2.91906 2.46112
O -4.1099 -3.02848 1.61876
O -3.48057 -3.10252 0.853616
O -2.76972 -3.1522 0.153791
O -2.00697 -3.18426 -0.49725
O -1.21366 -3.1975 -1.11601
O -0.406342 -3.18382 -1.71701
O 0.400305 -3.13104 -2.31316
O 1.19257 -3.02023 -2.91361
O 1.95615 -2.82489 -3.52134
O 2.67134 -2.51687 -4.13259
O 3.31487 -2.068 -4.73421
O 3.8676 -1.478 -5.30151
O 4.31615 -0.760931 -5.80998
O 4.65146 0.0627959 -6.2366
O 4.86805 0.967422 -6.56343
O 4.96375 1.92476 -6.7776
O 4.94001 2.90544 -6.87081
O 4.80285 3.88055 -6.83943
O 4.55961 4.82227 -6.68332
O 4.21944 5.70379 -6.40558
O 3.79541 6.50175 -6.01402
O 3.30263 7.19599 -5.51894
O 2.75749 7.76958 -4.93265
O 2.17644 8.2074 -4.26882
O 1.57715 8.49558 -3.54203
O 0.97911 8.62386 -2.76952
O 0.401792 8.58797 -1.97137
O -0.135908 8.38964 -1.16913
O -0.613254 8.03239 -0.383635
O -1.01152 7.52554 0.363123
O -1.31351 6.88313 1.04874
O -1.50187 6.1263 1.65444
O -1.56418 5.28329 2.16661
O -1.49589 4.38641 2.57922
O -1.30813 3.46578 2.89858
O -1.03059 2.53981 3.14549
O -0.691857 1.61608 3.33961
O -0.3171 0.695038 3.49633
O 0.0705403 -0.226903 3.62345
O 0.448763 -1.15507 3.72034
O 0.794995 -2.09477 3.78078
O 1.08532 -3.04959 3.79141
O 1.2937 -4.01803 3.73176
O 1.39023 -4.99039 3.57512
O 1.36257 -5.94077 3.3061
O 1.21441 -6.83735 2.92082
O 0.956187 -7.64953 2.42436
O 0.603173 -8.35086 1.82834
O 0.173212 -8.92043 1.14881
O -0.315311 -9.34238 0.4047
O -0.843384 -9.60663 -0.383544
O -1.39258 -9.70765 -1.19462
O -1.94536 -9.64268 -2.00662
O -2.48419 -9.41461 -2.79804
O -2.99245 -9.03213 -3.54907
O -3.45466 -8.50771 -4.24193
O -3.85707 -7.85744 -4.8616
O -4.18783 -7.09868 -5.39435
O -4.4366 -6.25065 -5.82809
O -4.59445 -5.33459 -6.1525
O -4.6535 -4.37369 -6.35924
O -4.6062 -3.39351 -6.44227
O -4.44849 -2.42212 -6.39926
O -4.17865 -1.48937 -6.23149
O -3.79995 -0.625416 -5.94506
O -3.31882 0.140698 -5.55193
O -2.7457 0.785517 -5.07177
O -2.0954 1.29626 -4.52987
O -1.38867 1.68081 -3.94901
O -0.646232 1.96743 -3.34717
O 0.116031 2.18334 -2.73262
O 0.883678 2.35163 -2.10725
O 1.63825 2.49009 -1.47196
O 2.35324 2.60964 -0.833625
O 3.02735 2.71995 -0.171106
O 3.64428 2.82305 0.56314
O 4.18942 2.92096 1.34274
O 4.73961 3.02561 2.1205
100
Atoms. Timestep: 30
O 5.30652 3.18078 3.70913
O 5.07315 3.10623 4.63843
O 4.84371 3.02788 5.56799
O 4.56193 2.92174 6.48298
O 4.1192 2.75705 7.31687
O 3.53521 2.53644 8.04974
O 2.85202 2.26893 8.67719
O 2.10361 1.96529 9.17444
O 1.29449 1.62564 9.54218
O 0.427611 1.24768 9.77071
O -0.463895 0.840775 9.84291
O -1.34743 0.415277 9.75189
O -2.19426 -0.0200216 9.49897
O -2.97801 -0.455746 9.09022
O -3.67436 -0.881689 8.53796
O -4.2617 -1.28825 7.85882
O -4.71946 -1.66706 7.0718
O -5.03058 -2.00986 6.20071
O -5.18225 -2.3098 5.27291
O -5.16493 -2.56249 4.31865
O -4.97518 -2.76554 3.37058
O -4.61834 -2.91908 2.46128
O -4.10995 -3.02845 1.61883
O -3.48062 -3.10245 0.853677
O -2.76987 -3.15241 0.153722
O -2.00716 -3.1847 -0.497418
O -1.21377 -3.19789 -1.11616
O -0.406479 -3.18436 -1.71726
O 0.399975 -3.1319 -2.31371
O 1.19228 -3.02097 -2.91439
O 1.95575 -2.82578 -3.52246
O 2.67112 -2.51778 -4.1337
O 3.31467 -2.06941 -4.73582
O 3.86746 -1.47924 -5.30302
O 4.3162 -0.761184 -5.81021
O 4.65149 0.062749 -6.23655
O 4.86813 0.967392 -6.5635
O 4.96386 1.92474 -6.77767
O 4.94013 2.90542 -6.8709
O 4.80296 3.88057 -6.83948
O 4.55969 4.82233 -6.68339
O 4.21949 5.70387 -6.40563
O 3.79534 6.50172 -6.01401
O 3.30267 7.19606 -5.51895
O 2.75745 7.76988 -4.93288
O 2.17622 8.20815 -4.26939
O 1.57715 8.49584 -3.54211
O 0.979054 8.62404 -2.76946
O 0.401229 8.58861 -1.97158
O -0.136415 8.39031 -1.16928
O -0.61306 8.03258 -0.383442
O -1.01078 7.52531 0.363459
O -1.31242 6.88272 1.04925
O -1.50074 6.12595 1.65521
O -1.56325 5.28298 2.16749
O -1.49532 4.38606 2.57971
O -1.30747 3.46565 2.89885
O -1.02978 2.53982 3.1455
O -0.690999 1.6163 3.33946
O -0.316267 0.695425 3.49634
O 0.0712509 -0.226409 3.62347
O 0.449197 -1.15439 3.72029
O 0.795184 -2.09382 3.78064
O 1.08614 -3.04839 3.79075
O 1.29519 -4.01675 3.73136
O 1.39072 -4.98947 3.57502
O 1.3625 -5.94015 3.30619
O 1.21439 -6.83707 2.92094
O 0.95621 -7.64945 2.4244
O 0.603157 -8.35083 1.82833
O 0.17326 -8.92044 1.14879
O -0.315397 -9.34228 0.404678
O -0.843459 -9.60681 -0.383493
O -1.3928 -9.70807 -1.19447
O -1.94559 -9.64309 -2.00652
O -2.48425 -9.41474 -2.79801
O -2.99242 -9.03215 -3.54903
O -3.45463 -8.50776 -4.24192
O -3.85708 -7.85744 -4.86159
O -4.18782 -7.09867 -5.39437
O -4.43659 -6.25067 -5.82809
O -4.59445 -5.3346 -6.15247
O -4.6535 -4.37369 -6.35924
O -4.60621 -3.39351 -6.44231
O -4.44849 -2.42211 -6.39921
O -4.17866 -1.48936 -6.2315
O -3.79998 -0.625461 -5.94506
O -3.31881 0.140672 -5.55198
O -2.74582 0.785473 -5.07182
O -2.0957 1.2962 -4.53
O -1.38982 1.68047 -3.94988
O -0.652132 1.9659 -3.35168
O 0.0896198 2.1779 -2.75318
O 0.818243 2.34035 -2.16108
O 1.55815 2.47825 -1.55103
O 2.29172 2.59996 -0.920502
O 2.97474 2.70954 -0.250797
O 3.60082 2.8132 0.479715
O 4.22167 2.92338 1.20539
O 4.85535 3.03836 1.91869
100
Atoms. Timestep: 40
O 5.53859 3.2479 3.86477
O 5.22402 3.15168 4.77029
O 4.90705 3.05018 5.67597
O 4.57102 2.93118 6.57638
O 4.13804 2.76794 7.42445
O 3.54131 2.5413 8.15547
O 2.83524 2.26573 8.75938
O 2.06171 1.95165 9.24373
O 1.22571 1.59925 9.59619
O 0.358106 1.21852 9.79802
O -0.504569 0.822584 9.84922
O -1.36134 0.408838 9.75309
O -2.19855 -0.0220738 9.49976
O -2.98024 -0.456687 9.09094
O -3.676 -0.882408 8.53813
O -4.26273 -1.28911 7.85827
O -4.72032 -1.66756 7.07123
O -5.03105 -2.0101 6.20041
O -5.18241 -2.30991 5.27281
O -5.16473 -2.5624 4.3186
O -4.9753 -2.76561 3.37049
O -4.61811 -2.91894 2.46135
O -4.10995 -3.02843 1.61886
O -3.48074 -3.10263 0.853657
O -2.77 -3.15281 0.153664
O -2.00721 -3.18515 -0.497425
O -1.21381 -3.19854 -1.11623
O -0.406654 -3.18553 -1.71777
O 0.399463 -3.13377 -2.31496
O 1.19188 -3.02231 -2.91556
O 1.95539 -2.82714 -3.52378
O 2.67075 -2.51948 -4.1356
O 3.31452 -2.07115 -4.73776
O 3.8674 -1.48127 -5.30546
O 4.31621 -0.762741 -5.81233
O 4.65153 0.0620822 -6.23732
O 4.86837 0.967114 -6.56384
O 4.96419 1.92461 -6.77802
O 4.94047 2.90544 -6.87109
O 4.80328 3.88067 -6.83965
O 4.55998 4.82245 -6.68357
O 4.21962 5.70395 -6.40576
O 3.79516 6.50177 -6.01405
O 3.30252 7.19673 -5.51946
O 2.75711 7.77138 -4.93408
O 2.17603 8.20918 -4.26995
O 1.57699 8.49665 -3.54238
O 0.978725 8.62477 -2.76964
O 0.400718 8.58947 -1.97169
O -0.136502 8.39083 -1.16898
O -0.613071 8.03292 -0.382942
O -1.00995 7.52505 0.364158
O -1.30969 6.88196 1.05041
O -1.49798 6.12545 1.65664
O -1.56089 5.28264 2.16904
O -1.4933 4.38566 2.5812
O -1.3055 3.46521 2.89951
O -1.02741 2.53978 3.14554
O -0.688452 1.61681 3.33914
O -0.313877 0.696638 3.49616
O 0.0731269 -0.224672 3.62344
O 0.450541 -1.15262 3.72023
O 0.79671 -2.09204 3.78
O 1.08821 -3.04645 3.78972
O 1.2968 -4.01493 3.73028
O 1.39159 -4.98801 3.57477
O 1.36256 -5.93887 3.30618
O 1.21419 -6.83605 2.92113
O 0.956225 -7.64877 2.42469
O 0.603297 -8.35052 1.82854
O 0.173294 -8.92026 1.14882
O -0.315436 -9.34234 0.404675
O -0.843672 -9.60714 -0.383375
O -1.3931 -9.70863 -1.1943
O -1.94584 -9.64358 -2.00634
O -2.48443 -9.41505 -2.79784
O -2.99241 -9.03215 -3.54891
O -3.45459 -8.50771 -4.24183
O -3.85703 -7.85746 -4.86156
O -4.1878 -7.0987 -5.39436
O -4.4366 -6.2507 -5.82811
O -4.59448 -5.33463 -6.15246
O -4.65351 -4.37371 -6.35924
O -4.60622 -3.39356 -6.44231
O -4.44855 -2.42221 -6.39922
O -4.17877 -1.48952 -6.23148
O -3.80018 -0.625791 -5.9453
O -3.31954 0.139822 -5.55274
O -2.74971 0.78278 -5.07498
O -2.11295 1.28815 -4.54395
O -1.44029 1.66465 -3.99019
O -0.73274 1.95086 -3.41503
O 0.00851453 2.16986 -2.81689
O 0.756294 2.33679 -2.21869
O 1.50794 2.47401 -1.62238
O 2.24488 2.59296 -0.991256
O 2.92573 2.69954 -0.309984
O 3.59759 2.81043 0.381689
O 4.28785 2.92914 1.04483
O 4.99068 3.05103 1.691
100
Atoms. Timestep: 50
O 5.78523 3.32104 4.0524
O 5.39526 3.20466 4.92723
O 5.00867 3.08414 5.80622
O 4.59858 2.94634 6.67616
O 4.14042 2.77702 7.51654
O 3.55752 2.55172 8.26521
O 2.83966 2.27097 8.85866
O 2.04234 1.94892 9.32104
O 1.19533 1.59213 9.65793
O 0.323509 1.20857 9.84864
O -0.561068 0.801424 9.8865
O -1.43646 0.376118 9.76676
O -2.26181 -0.0526757 9.49192
O -3.01171 -0.473319 9.07949
O -3.68566 -0.888198 8.5328
O -4.26572 -1.29139 7.85642
O -4.72242 -1.66898 7.07033
O -5.03312 -2.01124 6.19921
O -5.18362 -2.31077 5.27122
O -5.16554 -2.56305 4.31732
O -4.97552 -2.76589 3.36973
O -4.61806 -2.91894 2.46098
O -4.10972 -3.02838 1.61869
O -3.48067 -3.10308 0.853429
O -2.76984 -3.15325 0.153719
O -2.00691 -3.18571 -0.497267
O -1.21361 -3.19968 -1.11638
O -0.406852 -3.18749 -1.71861
O 0.399249 -3.1357 -2.31609
O 1.19156 -3.02462 -2.91725
O 1.95517 -2.82904 -3.52553
O 2.6705 -2.5215 -4.13768
O 3.31427 -2.07344 -4.74035
O 3.8674 -1.4835 -5.30819
O 4.31619 -0.765054 -5.8156
O 4.65155 0.0604451 -6.23992
O 4.86864 0.966159 -6.56533
O 4.96456 1.924 -6.77925
O 4.94115 2.90522 -6.87244
O 4.80398 3.8808 -6.8409
O 4.56046 4.82291 -6.68467
O 4.21961 5.7046 -6.40662
O 3.79487 6.50285 -6.01521
O 3.30197 7.19848 -5.52136
O 2.75677 7.77321 -4.93545
O 2.17573 8.2107 -4.27057
O 1.57658 8.49797 -3.54276
O 0.978171 8.62605 -2.76988
O 0.400744 8.59006 -1.97127
O -0.136504 8.39135 -1.16835
O -0.612625 8.03295 -0.382268
O -1.00801 7.52403 0.364905
O -1.306 6.88094 1.05205
O -1.49259 6.12445 1.65894
O -1.55639 5.28212 2.17134
O -1.48892 4.3856 2.58373
O -1.30116 3.46517 2.90088
O -1.02277 2.54029 3.14576
O -0.683334 1.61826 3.339
O -0.308884 0.698768 3.49589
O 0.0773789 -0.222232 3.623
O 0.454292 -1.14986 3.71984
O 0.800328 -2.089 3.77908
O 1.09108 -3.04335 3.78832
O 1.29904 -4.01209 3.72834
O 1.39226 -4.98555 3.57393
O 1.36278 -5.93696 3.30605
O 1.21387 -6.8344 2.92119
O 0.955963 -7.64746 2.42497
O 0.603354 -8.34957 1.82881
O 0.173465 -8.91966 1.14914
O -0.315322 -9.34226 0.405084
O -0.84377 -9.60746 -0.382947
O -1.39334 -9.70912 -1.194
O -1.94616 -9.64411 -2.00611
O -2.48468 -9.41538 -2.79763
O -2.99252 -9.03232 -3.54872
O -3.45448 -8.50766 -4.24162
O -3.8569 -7.85753 -4.86141
O -4.1878 -7.09918 -5.39431
O -4.43692 -6.25144 -5.82833
O -4.5949 -5.33547 -6.15279
O -4.65387 -4.37451 -6.35946
O -4.60637 -3.39429 -6.44233
O -4.44904 -2.42356 -6.39949
O -4.18085 -1.49386 -6.23291
O -3.81009 -0.640488 -5.95368
O -3.35401 0.106149 -5.5821
O -2.81615 0.746953 -5.1304
O -2.19246 1.27434 -4.60721
O -1.50869 1.67083 -4.04176
O -0.795934 1.96093 -3.46044
O -0.0548626 2.17624 -2.86798
O 0.710268 2.34146 -2.27827
O 1.46859 2.47357 -1.68151
O 2.19505 2.58593 -1.03359
O 2.9007 2.69444 -0.370959
O 3.62614 2.81152 0.266399
O 4.36908 2.93312 0.873418
O 5.13425 3.06198 1.44542
100
Atoms. Timestep: 60
O 6.03129 3.39651 4.27054
O 5.57913 3.26262 5.11285
O 5.12255 3.12293 5.95654
O 4.65307 2.96858 6.7953
O 4.13846 2.78472 7.60332
O 3.55307 2.55846 8.35363
O 2.8465 2.27766 8.96607
O 2.0344 1.95052 9.41048
O 1.17711 1.59107 9.72258
O 0.295107 1.20313 9.90479
O -0.599333 0.790494 9.93469
O -1.47245 0.365599 9.80507
O -2.30136 -0.0653312 9.52141
O -3.06899 -0.498415 9.08402
O -3.74595 -0.920625 8.50745
O -4.3057 -1.31651 7.82148
O -4.73813 -1.68111 7.04875
O -5.03827 -2.01554 6.19117
O -5.18659 -2.31265 5.26817
O -5.16754 -2.56433 4.31522
O -4.97619 -2.76647 3.3678
O -4.61812 -2.91887 2.45928
O -4.10928 -3.02841 1.61749
O -3.48016 -3.10346 0.852635
O -2.7689 -3.15376 0.153469
O -2.00598 -3.18657 -0.497321
O -1.21308 -3.20127 -1.11683
O -0.406473 -3.18929 -1.71938
O 0.399405 -3.13789 -2.31735
O 1.19154 -3.02694 -2.91892
O 1.95502 -2.8315 -3.52783
O 2.67031 -2.52317 -4.13999
O 3.31411 -2.07563 -4.74322
O 3.86713 -1.4859 -5.31159
O 4.31602 -0.767322 -5.81904
O 4.65159 0.0581924 -6.24382
O 4.86848 0.964557 -6.56825
O 4.96413 1.9231 -6.78114
O 4.9417 2.9048 -6.87462
O 4.80483 3.88086 -6.84322
O 4.56058 4.82316 -6.68632
O 4.21912 5.70529 -6.40844
O 3.79445 6.5047 -6.01787
O 3.30138 7.20069 -5.52359
O 2.75616 7.77503 -4.93662
O 2.17518 8.21225 -4.27123
O 1.57592 8.49971 -3.5431
O 0.97801 8.62721 -2.76959
O 0.400914 8.5909 -1.97079
O -0.135926 8.39163 -1.1677
O -0.611056 8.03218 -0.38137
O -1.0049 7.5226 0.366204
O -1.30075 6.87901 1.05331
O -1.48462 6.12349 1.66158
O -1.5477 5.28171 2.17465
O -1.48164 4.38581 2.58671
O -1.2937 3.46613 2.90322
O -1.01477 2.54177 3.14689
O -0.674837 1.62046 3.33935
O -0.300466 0.701732 3.4956
O 0.0852598 -0.21869 3.62197
O 0.461538 -1.14573 3.71882
O 0.806227 -2.08489 3.7781
O 1.0956 -3.03936 3.78634
O 1.30171 -4.00851 3.726
O 1.39386 -4.98241 3.57165
O 1.36274 -5.93434 3.30528
O 1.21361 -6.832 2.92123
O 0.955502 -7.64528 2.42512
O 0.603072 -8.34787 1.8291
O 0.173624 -8.91878 1.14959
O -0.31491 -9.34223 0.405675
O -0.843605 -9.60757 -0.382239
O -1.39334 -9.70941 -1.19325
O -1.94628 -9.64452 -2.0055
O -2.48483 -9.41586 -2.79722
O -2.9925 -9.03286 -3.54842
O -3.45423 -8.50812 -4.2411
O -3.85674 -7.85847 -4.86106
O -4.18823 -7.10071 -5.39458
O -4.4376 -6.25337 -5.82879
O -4.59577 -5.33806 -6.15331
O -4.65493 -4.37999 -6.3598
O -4.60971 -3.4113 -6.44365
O -4.46399 -2.46822 -6.40958
O -4.21842 -1.55981 -6.26362
O -3.86674 -0.692208 -6.00356
O -3.41507 0.0930087 -5.63585
O -2.87905 0.759297 -5.18302
O -2.26506 1.29355 -4.66298
O -1.58236 1.69469 -4.09228
O -0.858032 1.98416 -3.50318
O -0.102931 2.1936 -2.92075
O 0.672014 2.35117 -2.3333
O 1.42196 2.47403 -1.7121
O 2.15539 2.58256 -1.06744
O 2.90309 2.69431 -0.445537
O 3.66868 2.81103 0.146234
O 4.46172 2.9363 0.68825
O 5.27386 3.06872 1.19102
100
Atoms. Timestep: 70
O 6.26882 3.47165 4.51509
O 5.76137 3.32189 5.3229
O 5.24559 3.16504 6.12946
O 4.71388 2.99295 6.92764
O 4.15238 2.79529 7.70315
O 3.53162 2.5603 8.42439
O 2.83185 2.28033 9.0504
O 2.0273 1.95178 9.50929
O 1.16108 1.58968 9.79627
O 0.269167 1.19903 9.95701
O -0.625511 0.785858 9.9809
O -1.50143 0.358854 9.84722
O -2.33932 -0.0772358 9.55267
O -3.10671 -0.511039 9.10759
O -3.77869 -0.930357 8.529
O -4.34322 -1.33102 7.82814
O -4.78121 -1.70494 7.022
O -5.07019 -2.04047 6.14195
O -5.20062 -2.32883 5.22604
O -5.17071 -2.57076 4.29445
O -4.97681 -2.76786 3.36008
O -4.61818 -2.91878 2.45578
O -4.10868 -3.02818 1.61486
O -3.47861 -3.10348 0.851028
O -2.7671 -3.15432 0.152466
O -2.00434 -3.18775 -0.498138
O -1.21162 -3.20249 -1.11762
O -0.405362 -3.19073 -1.72038
O 0.400113 -3.1397 -2.3188
O 1.19187 -3.02892 -2.92087
O 1.95492 -2.8332 -3.53016
O 2.66985 -2.52476 -4.14279
O 3.31354 -2.07721 -4.74623
O 3.86661 -1.48812 -5.31553
O 4.31565 -0.76974 -5.82352
O 4.65119 0.0560924 -6.24833
O 4.86756 0.962899 -6.57279
O 4.96348 1.92203 -6.78471
O 4.94141 2.90413 -6.87736
O 4.80488 3.88065 -6.84576
O 4.55984 4.82317 -6.68855
O 4.21788 5.70588 -6.41132
O 3.7936 6.50613 -6.02105
O 3.30105 7.20236 -5.52592
O 2.75566 7.77661 -4.93831
O 2.17468 8.21421 -4.27258
O 1.57591 8.50107 -3.54354
O 0.97834 8.62848 -2.76941
O 0.4013 8.59188 -1.97024
O -0.134488 8.39137 -1.16685
O -0.608066 8.03119 -0.380397
O -1.00021 7.52108 0.367303
O -1.29333 6.87726 1.05521
O -1.47498 6.122 1.66411
O -1.53434 5.28188 2.1798
O -1.46937 4.38621 2.5917
O -1.28234 3.46694 2.90678
O -1.00264 2.54374 3.14894
O -0.662362 1.6237 3.34041
O -0.287886 0.705941 3.49543
O 0.097764 -0.213614 3.62131
O 0.472554 -1.14037 3.71719
O 0.815307 -2.07967 3.77593
O 1.1025 -3.03477 3.7843
O 1.30567 -4.00415 3.72316
O 1.39547 -4.97842 3.56886
O 1.36325 -5.93057 3.30335
O 1.21301 -6.82891 2.92077
O 0.954784 -7.64261 2.42506
O 0.602544 -8.34552 1.8294
O 0.173767 -8.91749 1.15027
O -0.31415 -9.34205 0.406425
O -0.843108 -9.60758 -0.381385
O -1.39312 -9.70939 -1.19217
O -1.94602 -9.6447 -2.00425
O -2.48442 -9.4167 -2.79602
O -2.99204 -9.03386 -3.54738
O -3.45397 -8.50956 -4.24048
O -3.8567 -7.8608 -4.86053
O -4.18809 -7.10579 -5.39357
O -4.43683 -6.26812 -5.82567
O -4.59606 -5.37848 -6.14793
O -4.66466 -4.45096 -6.36128
O -4.63572 -3.48505 -6.46274
O -4.50087 -2.51181 -6.44352
O -4.26035 -1.57496 -6.30466
O -3.92185 -0.70151 -6.05465
O -3.48469 0.0957527 -5.69763
O -2.95132 0.783513 -5.24297
O -2.33739 1.32814 -4.7143
O -1.65582 1.72891 -4.13949
O -0.915399 2.01479 -3.55445
O -0.144315 2.21584 -2.97521
O 0.621217 2.36147 -2.36572
O 1.37243 2.47694 -1.73079
O 2.13477 2.58483 -1.11434
O 2.9152 2.69369 -0.524963
O 3.72162 2.81003 0.0138548
O 4.55612 2.93715 0.494721
O 5.40377 3.07088 0.938095
100
Atoms. Timestep: 80
O 6.4922 3.54503 4.78093
O 5.93405 3.3798 5.55167
O 5.36715 3.2077 6.32064
O 4.78114 3.01861 7.07638
O 4.17045 2.80636 7.81155
O 3.51535 2.56196 8.49904
O 2.7968 2.27808 9.10575
O 2.0056 1.95021 9.58816
O 1.14152 1.58496 9.88278
O 0.244324 1.19349 10.0121
O -0.650682 0.781235 10.0169
O -1.53066 0.350681 9.87966
O -2.36746 -0.0856895 9.58248
O -3.13301 -0.517636 9.13514
O -3.81095 -0.940666 8.54787
O -4.3762 -1.34339 7.83738
O -4.8096 -1.7139 7.03248
O -5.09929 -2.04887 6.15126
O -5.23086 -2.34287 5.21198
O -5.19006 -2.58775 4.24917
O -4.97699 -2.77972 3.3075
O -4.60922 -2.92384 2.42119
O -4.10167 -3.02807 1.60012
O -3.47444 -3.10319 0.845949
O -2.76412 -3.15481 0.150051
O -2.00166 -3.18848 -0.499986
O -1.20916 -3.20316 -1.11917
O -0.403483 -3.19153 -1.722
O 0.401341 -3.1406 -2.3206
O 1.19239 -3.02988 -2.92308
O 1.95475 -2.834 -3.53262
O 2.66891 -2.52619 -4.14614
O 3.3116 -2.07893 -4.75102
O 3.86537 -1.49029 -5.32056
O 4.31465 -0.772302 -5.82957
O 4.64967 0.0540213 -6.25458
O 4.86617 0.9612 -6.57907
O 4.9623 1.92072 -6.79086
O 4.94012 2.90337 -6.88188
O 4.80302 3.88029 -6.84902
O 4.55795 4.82329 -6.69276
O 4.21625 5.70655 -6.41591
O 3.7921 6.50693 -6.02484
O 3.30006 7.20374 -5.52931
O 2.7552 7.7787 -4.94145
O 2.17451 8.21607 -4.27473
O 1.57632 8.50273 -3.54468
O 0.979033 8.63002 -2.77011
O 0.4026 8.59306 -1.97059
O -0.131815 8.39151 -1.16646
O -0.603862 8.03027 -0.379323
O -0.99358 7.51946 0.369062
O -1.28447 6.87559 1.05763
O -1.46181 6.12067 1.66792
O -1.51822 5.28189 2.18511
O -1.45103 4.38783 2.59862
O -1.26565 3.4684 2.91171
O -0.986332 2.54574 3.15231
O -0.644997 1.6272 3.34232
O -0.270008 0.711207 3.49645
O 0.114837 -0.20733 3.62085
O 0.488021 -1.13409 3.71493
O 0.828223 -2.07331 3.7729
O 1.11241 -3.0288 3.78149
O 1.31078 -3.99933 3.72075
O 1.39712 -4.97388 3.56611
O 1.3637 -5.92601 3.30068
O 1.21255 -6.82475 2.91911
O 0.953752 -7.63916 2.42497
O 0.602017 -8.34294 1.82987
O 0.173907 -8.91584 1.15097
O -0.313508 -9.34108 0.407553
O -0.841934 -9.60737 -0.379846
O -1.39214 -9.70896 -1.19023
O -1.94526 -9.64494 -2.00234
O -2.4835 -9.41753 -2.79404
O -2.9903 -9.03667 -3.54433
O -3.44968 -8.51875 -4.23337
O -3.8473 -7.88834 -4.84456
O -4.17749 -7.16206 -5.37254
O -4.43676 -6.33903 -5.81629
O -4.61178 -5.43329 -6.15997
O -4.69014 -4.47849 -6.38753
O -4.66648 -3.50883 -6.49433
O -4.54009 -2.54083 -6.48298
O -4.3105 -1.59086 -6.35304
O -3.97965 -0.69558 -6.10797
O -3.55136 0.112464 -5.75614
O -3.02642 0.808846 -5.3008
O -2.41276 1.3631 -4.76242
O -1.7204 1.76526 -4.19201
O -0.967122 2.04622 -3.61478
O -0.199369 2.23643 -3.01133
O 0.55869 2.37218 -2.38302
O 1.33193 2.4849 -1.76296
O 2.11968 2.588 -1.16905
O 2.93502 2.69343 -0.617673
O 3.77867 2.809 -0.13111
O 4.64432 2.93436 0.300972
O 5.51569 3.06524 0.699364
100
Atoms. Timestep: 90
O 6.69591 3.61472 5.0626
O 6.0936 3.4354 5.79555
O 5.4801 3.2477 6.52375
O 4.85124 3.04478 7.23982
O 4.19182 2.81777 7.92756
O 3.50137 2.56353 8.57665
O 2.76177 2.2738 9.15738
O 1.9662 1.94523 9.6327
O 1.11171 1.57775 9.95541
O 0.217355 1.18409 10.0806
O -0.678638 0.772569 10.0504
O -1.55713 0.342816 9.89786
O -2.39169 -0.0935272 9.60307
O -3.15942 -0.5271 9.15253
O -3.83505 -0.949203 8.56121
O -4.39741 -1.34906 7.85332
O -4.833 -1.72139 7.04299
O -5.12385 -2.05827 6.15132
O -5.25337 -2.34987 5.21246
O -5.21446 -2.59193 4.25512
O -5.00258 -2.78509 3.30342
O -4.62037 -2.92964 2.3915
O -4.08887 -3.03296 1.55577
O -3.4493 -3.10525 0.809675
O -2.7456 -3.15567 0.131402
O -1.99288 -3.18862 -0.507162
O -1.20502 -3.20322 -1.12262
O -0.400846 -3.19138 -1.72454
O 0.402932 -3.14033 -2.32304
O 1.19317 -3.02939 -2.92549
O 1.95463 -2.83432 -3.53604
O 2.66729 -2.5272 -4.1515
O 3.30938 -2.08061 -4.75734
O 3.86277 -1.49223 -5.32748
O 4.31224 -0.7742 -5.83653
O 4.64728 0.0518923 -6.26246
O 4.86347 0.959489 -6.58699
O 4.96005 1.91944 -6.79826
O 4.9373 2.90248 -6.88813
O 4.79945 3.87953 -6.85437
O 4.55421 4.82282 -6.69813
O 4.2137 5.70691 -6.42135
O 3.79001 6.50766 -6.02979
O 3.29826 7.2051 -5.53409
O 2.75434 7.78081 -4.94568
O 2.17463 8.21831 -4.27809
O 1.57675 8.50523 -3.54772
O 0.979953 8.63237 -2.77236
O 0.404824 8.59441 -1.97157
O -0.128082 8.392 -1.16642
O -0.597889 8.02965 -0.37824
O -0.985368 7.5184 0.370997
O -1.27255 6.87457 1.06077
O -1.44616 6.12072 1.67284
O -1.49919 5.2825 2.19042
O -1.42839 4.38963 2.60455
O -1.24196 3.47145 2.91826
O -0.964586 2.54893 3.15722
O -0.622711 1.63145 3.34584
O -0.246769 0.716721 3.49857
O 0.137141 -0.200879 3.62075
O 0.508439 -1.12697 3.71316
O 0.846338 -2.06625 3.77005
O 1.12538 -3.02244 3.7781
O 1.3176 -3.99417 3.71777
O 1.39998 -4.9689 3.56364
O 1.36374 -5.92082 3.29794
O 1.21205 -6.81967 2.91674
O 0.953018 -7.63483 2.42431
O 0.601649 -8.33985 1.83084
O 0.174352 -8.91342 1.15264
O -0.312402 -9.3396 0.409629
O -0.840532 -9.60642 -0.377542
O -1.38971 -9.70866 -1.18662
O -1.93976 -9.64709 -1.99376
O -2.47035 -9.42904 -2.77384
O -2.9686 -9.0687 -3.51084
O -3.43059 -8.57004 -4.20191
O -3.84383 -7.93917 -4.83433
O -4.19 -7.19419 -5.3854
O -4.45518 -6.36205 -5.83712
O -4.63253 -5.46464 -6.1813
O -4.71653 -4.51237 -6.41424
O -4.69821 -3.52833 -6.52873
O -4.57742 -2.54904 -6.52226
O -4.3587 -1.59762 -6.39941
O -4.0381 -0.692299 -6.16096
O -3.61576 0.129132 -5.80648
O -3.09822 0.83059 -5.34718
O -2.48112 1.3901 -4.81443
O -1.77313 1.79562 -4.25392
O -1.02622 2.07066 -3.66124
O -0.270997 2.25431 -3.03222
O 0.500937 2.38626 -2.40811
O 1.29438 2.49412 -1.80393
O 2.11074 2.59224 -1.23617
O 2.95948 2.69504 -0.729239
O 3.82949 2.80644 -0.284113
O 4.71585 2.92655 0.109616
O 5.60172 3.04841 0.476959
100
Atoms. Timestep: 100
O 6.87847 3.68021 5.35378
O 6.23613 3.48695 6.04785
O 5.58437 3.28505 6.73783
O 4.91329 3.06828 7.40972
O 4.21689 2.82976 8.05523
O 3.48966 2.56464 8.65793
O 2.72948 2.26923 9.20871
O 1.92396 1.93811 9.66532
O 1.07064 1.56979 9.9925
O 0.183783 1.17189 10.1424
O -0.710431 0.758235 10.0969
O -1.58215 0.333721 9.91133
O -2.41457 -0.101591 9.60759
O -3.18228 -0.537477 9.15924
O -3.85389 -0.957145 8.5693
O -4.41548 -1.35649 7.8581
O -4.84988 -1.72826 7.04558
O -5.13704 -2.06171 6.15891
O -5.26762 -2.35184 5.21923
O -5.22883 -2.59521 4.25269
O -5.0168 -2.78671 3.2994
O -4.63948 -2.92918 2.39452
O -4.11131 -3.03282 1.55827
O -3.45925 -3.10589 0.798401
O -2.72889 -3.15652 0.104836
O -1.96085 -3.18972 -0.537355
O -1.17956 -3.20312 -1.14358
O -0.388786 -3.19024 -1.73492
O 0.407824 -3.13846 -2.32814
O 1.19513 -3.02804 -2.9296
O 1.95413 -2.83453 -3.5417
O 2.66567 -2.52785 -4.15826
O 3.30684 -2.08188 -4.76519
O 3.85894 -1.49342 -5.33615
O 4.308 -0.775422 -5.84538
O 4.64353 0.0503731 -6.27141
O 4.8594 0.957859 -6.59623
O 4.95578 1.91806 -6.80646
O 4.93273 2.90134 -6.89608
O 4.79433 3.87852 -6.86215
O 4.54936 4.82204 -6.70446
O 4.20946 5.70656 -6.42709
O 3.78715 6.50845 -6.03613
O 3.29633 7.20632 -5.54006
O 2.75328 7.78235 -4.9508
O 2.17443 8.2212 -4.28286
O 1.5771 8.50841 -3.55185
O 0.981362 8.63496 -2.77547
O 0.408021 8.59595 -1.97332
O -0.122033 8.392 -1.16674
O -0.589651 8.02951 -0.377703
O -0.974342 7.51839 0.372878
O -1.25778 6.87543 1.06481
O -1.42839 6.12203 1.67783
O -1.47658 5.28453 2.19648
O -1.40171 4.39227 2.61047
O -1.21248 3.47567 2.92534
O -0.934501 2.5542 3.1645
O -0.59477 1.63686 3.35122
O -0.219214 0.722927 3.50099
O 0.164907 -0.194019 3.62168
O 0.534988 -1.11957 3.71252
O 0.868996 -2.05946 3.76793
O 1.14177 -3.01656 3.7752
O 1.32771 -3.98861 3.71453
O 1.40401 -4.96338 3.56093
O 1.36485 -5.91515 3.29617
O 1.21175 -6.81351 2.91558
O 0.953222 -7.62923 2.42397
O 0.601984 -8.33564 1.83234
O 0.175583 -8.91038 1.1562
O -0.308168 -9.33639 0.416857
O -0.8288 -9.60421 -0.359841
O -1.36625 -9.715 -1.15242
O -1.91135 -9.66934 -1.95223