100
Atoms. Timestep: 0
O 2.63684 5.66781 1.85366
O 2.54104 5.60768 2.80796
O 2.38372 5.44032 3.74106
O 2.16428 5.16408 4.63488
O 1.88368 4.77967 5.46962
O 1.54478 4.29092 6.22428
O 1.15259 3.70542 6.87736
O 0.718648 3.03437 7.41074
O 0.256369 2.29219 7.8089
O -0.21935 1.49614 8.05999
O -0.692846 0.66578 8.15663
O -1.14846 -0.177917 8.09648
O -1.57133 -1.01361 7.88237
O -1.94794 -1.82077 7.52219
O -2.26663 -2.58069 7.02817
O -2.51794 -3.27735 6.41609
O -2.6948 -3.89787 5.7041
O -2.79799 -4.43148 4.91166
O -2.83025 -4.87106 4.05776
O -2.7957 -5.2127 3.16024
O -2.69941 -5.45506 2.23531
O -2.54698 -5.59874 1.29739
O -2.34435 -5.64569 0.359127
O -2.09756 -5.59856 -0.568508
O -1.81255 -5.46036 -1.47588
O -1.49512 -5.23396 -2.35431
O -1.15087 -4.92215 -3.1957
O -0.785212 -4.52776 -3.99219
O -0.403485 -4.05383 -4.73604
O -0.01088 -3.5039 -5.41946
O 0.387506 -2.88209 -6.03446
O 0.78623 -2.19292 -6.57262
O 1.17942 -1.44186 -7.02518
O 1.56121 -0.63601 -7.38336
O 1.92594 0.215556 -7.63873
O 2.26768 1.10191 -7.78346
O 2.58016 2.01015 -7.8108
O 2.85721 2.92526 -7.71568
O 3.09306 3.83027 -7.49544
O 3.28287 4.70666 -7.1504
O 3.42311 5.53507 -6.6844
O 3.51157 6.29631 -6.10495
O 3.54752 6.97226 -5.42317
O 3.53166 7.54689 -4.65338
O 3.4661 8.00703 -3.81254
O 3.35428 8.34301 -2.91943
O 3.2007 8.54895 -1.99365
O 3.0108 8.62287 -1.05473
O 2.79045 8.56644 -0.121244
O 2.54581 8.38451 0.789924
O 2.28297 8.08447 1.66406
O 2.00778 7.67559 2.48889
O 1.72554 7.16835 3.25464
O 1.44095 6.57391 3.95393
O 1.15818 5.90347 4.58159
O 0.880928 5.16788 5.1343
O 0.612395 4.3774 5.61022
O 0.355311 3.54156 6.00876
O 0.107804 2.66941 6.32758
O -0.132209 1.7696 6.56485
O -0.366902 0.850484 6.7189
O -0.598308 -0.0796967 6.78818
O -0.82826 -1.01266 6.77115
O -1.05836 -1.93983 6.66632
O -1.29004 -2.8521 6.47232
O -1.52452 -3.73966 6.18806
O -1.76276 -4.5917 5.81297
O -1.99974 -5.3978 5.34665
O -2.23011 -6.14646 4.79007
O -2.44818 -6.82541 4.14604
O -2.64804 -7.42178 3.41963
O -2.82358 -7.92258 2.61863
O -2.96871 -8.31533 1.75386
O -3.07759 -8.58879 0.839267
O -3.14498 -8.73388 -0.10808
O -3.1667 -8.74459 -1.06852
O -3.13984 -8.61881 -2.02061
O -3.06284 -8.35876 -2.94226
O -2.93573 -7.97079 -3.81195
O -2.76015 -7.46499 -4.60967
O -2.53939 -6.85451 -5.31795
O -2.27803 -6.15512 -5.92265
O -1.98155 -5.38419 -6.41351
O -1.65619 -4.55948 -6.78392
O -1.30855 -3.69835 -7.03067
O -0.94514 -2.81737 -7.15377
O -0.57221 -1.93176 -7.15588
O -0.195691 -1.05504 -7.04163
O 0.17858 -0.198951 -6.81684
O 0.544833 0.62644 -6.48801
O 0.897574 1.41242 -6.0621
O 1.23153 2.15134 -5.54629
O 1.54176 2.83639 -4.94788
O 1.82357 3.4613 -4.2743
O 2.0724 4.02015 -3.53307
O 2.28392 4.50719 -2.732
O 2.4538 4.91676 -1.87934
O 2.57791 5.24318 -0.983976
O 2.65222 5.48078 -0.0557365
O 2.67298 5.62404 0.894326
100
Atoms. Timestep: 100
O 3.93225 4.00784 2.80497
O 4.00673 3.95996 3.84629
O 3.94073 3.84921 4.87573
O 3.73459 3.66678 5.86662
O 3.39289 3.41295 6.79246
O 2.92172 3.09676 7.62861
O 2.32544 2.73302 8.35011
O 1.61206 2.33629 8.9302
O 0.802317 1.91661 9.34263
O -0.0687427 1.47649 9.56702
O -0.956978 1.01489 9.5934
O -1.81398 0.527418 9.42191
O -2.59291 0.0132413 9.06302
O -3.25275 -0.522627 8.53679
O -3.768 -1.06815 7.87216
O -4.13189 -1.60429 7.09912
O -4.3462 -2.1077 6.24162
O -4.41124 -2.56102 5.32187
O -4.32691 -2.95486 4.36514
O -4.09736 -3.28739 3.3977
O -3.73453 -3.5636 2.4423
O -3.25069 -3.7832 1.51374
O -2.65171 -3.94506 0.625213
O -1.95684 -4.06965 -0.21307
O -1.20967 -4.17174 -1.01776
O -0.464052 -4.23272 -1.82554
O 0.246067 -4.20164 -2.65437
O 0.912953 -4.0437 -3.48837
O 1.53899 -3.7604 -4.30521
O 2.11589 -3.36399 -5.0986
O 2.63156 -2.85665 -5.86135
O 3.07516 -2.23766 -6.5774
O 3.43952 -1.50859 -7.22411
O 3.71906 -0.677428 -7.77589
O 3.91091 0.241976 -8.20506
O 4.01998 1.22823 -8.48177
O 4.06227 2.25108 -8.58438
O 4.05929 3.27657 -8.50615
O 4.03052 4.27323 -8.25297
O 3.99056 5.2151 -7.84043
O 3.94866 6.0836 -7.29031
O 3.90793 6.86952 -6.62778
O 3.8604 7.57196 -5.87656
O 3.78897 8.18992 -5.05232
O 3.67864 8.71906 -4.16599
O 3.51701 9.15663 -3.23161
O 3.28851 9.50094 -2.26835
O 2.97513 9.74322 -1.29733
O 2.5676 9.86351 -0.340812
O 2.06989 9.833 0.576872
O 1.50541 9.62428 1.42885
O 0.915596 9.22262 2.19119
O 0.348596 8.63305 2.84492
O -0.152108 7.87569 3.37726
O -0.550174 6.98211 3.78248
O -0.812941 5.98755 4.06705
O -0.919931 4.92993 4.2597
O -0.881246 3.84359 4.40582
O -0.733342 2.75087 4.5403
O -0.5176 1.65656 4.68069
O -0.271633 0.563008 4.83404
O -0.0281099 -0.529029 4.99783
O 0.180479 -1.6183 5.16874
O 0.319309 -2.70523 5.33594
O 0.349838 -3.7894 5.47786
O 0.23678 -4.85858 5.55336
O -0.0279172 -5.8887 5.50666
O -0.41602 -6.84897 5.29521
O -0.885657 -7.70735 4.90899
O -1.39724 -8.43447 4.35581
O -1.91227 -9.00802 3.65179
O -2.38969 -9.41587 2.82061
O -2.79287 -9.66211 1.89214
O -3.0996 -9.76495 0.900788
O -3.30435 -9.7463 -0.12235
O -3.4145 -9.62472 -1.15154
O -3.44932 -9.41403 -2.16808
O -3.43706 -9.11627 -3.15743
O -3.40765 -8.72141 -4.10651
O -3.37922 -8.21521 -4.99911
O -3.355 -7.58754 -5.81039
O -3.33045 -6.83909 -6.51113
O -3.29747 -5.98217 -7.07341
O -3.2428 -5.03898 -7.47214
O -3.14905 -4.04025 -7.69026
O -2.99697 -3.02353 -7.72385
O -2.77249 -2.02568 -7.58558
O -2.47139 -1.07697 -7.29803
O -2.09701 -0.198942 -6.88481
O -1.65534 0.595283 -6.37044
O -1.15282 1.29933 -5.77715
O -0.596793 1.91232 -5.12499
O -0.00293672 2.43784 -4.42204
O 0.610689 2.87717 -3.6667
O 1.23225 3.22345 -2.85976
O 1.85529 3.48113 -2.01297
O 2.45378 3.68142 -1.13269
O 2.98111 3.84239 -0.207002
O 3.40864 3.95341 0.765678
O 3.72776 4.00504 1.7734
100
Atoms. Timestep: 200
O 4.11354 1.93179 3.00868
O 4.37187 1.96753 3.96458
O 4.44494 2.00979 4.94873
O 4.30679 2.05374 5.92389
O 3.94901 2.08523 6.84207
O 3.38721 2.07872 7.65331
O 2.6638 2.00806 8.32342
O 1.8336 1.86118 8.84253
O 0.937503 1.64527 9.20507
O 0.00291435 1.38028 9.39484
O -0.938895 1.07841 9.37665
O -1.84618 0.75418 9.15091
O -2.69069 0.432496 8.74636
O -3.4415 0.135345 8.17383
O -4.05004 -0.132592 7.44212
O -4.46846 -0.382746 6.58301
O -4.66835 -0.626004 5.64724
O -4.6498 -0.869007 4.6902
O -4.43146 -1.10874 3.75571
O -4.04367 -1.34338 2.87335
O -3.51788 -1.57038 2.05807
O -2.88768 -1.78779 1.31156
O -2.17939 -1.9852 0.628521
O -1.42041 -2.15699 -0.0066663
O -0.634326 -2.29357 -0.615441
O 0.158959 -2.38729 -1.22068
O 0.946124 -2.42725 -1.836
O 1.71264 -2.4116 -2.47302
O 2.44596 -2.33265 -3.1366
O 3.13234 -2.17693 -3.82796
O 3.75544 -1.91536 -4.54082
O 4.29017 -1.51857 -5.2594
O 4.7094 -0.96562 -5.94992
O 5.00239 -0.255311 -6.55679
O 5.18206 0.586135 -7.02452
O 5.28198 1.51435 -7.32008
O 5.33371 2.48302 -7.44846
O 5.34144 3.45956 -7.43365
O 5.28463 4.42068 -7.29298
O 5.15 5.34584 -7.03506
O 4.9396 6.21942 -6.67204
O 4.65715 7.03103 -6.21897
O 4.30677 7.76939 -5.68822
O 3.89503 8.41823 -5.08505
O 3.43501 8.96668 -4.41769
O 2.93547 9.40962 -3.7008
O 2.39171 9.72898 -2.95215
O 1.8061 9.88366 -2.18588
O 1.20796 9.83192 -1.41918
O 0.648746 9.56232 -0.67387
O 0.170706 9.09797 0.0281814
O -0.201149 8.4782 0.670452
O -0.460132 7.74731 1.24745
O -0.614627 6.94283 1.76322
O -0.688586 6.08922 2.22243
O -0.708872 5.20065 2.62685
O -0.689473 4.28297 2.97514
O -0.630175 3.34262 3.26737
O -0.527972 2.3865 3.51096
O -0.389419 1.42 3.7137
O -0.230232 0.446469 3.88142
O -0.0702782 -0.533089 4.01543
O 0.0702605 -1.51777 4.10897
O 0.177402 -2.50581 4.15184
O 0.245912 -3.49312 4.13495
O 0.275989 -4.47278 4.04941
O 0.263474 -5.43768 3.88871
O 0.196814 -6.37836 3.64599
O 0.0624454 -7.27967 3.31256
O -0.155491 -8.12265 2.885
O -0.470706 -8.8782 2.36243
O -0.888362 -9.50359 1.74392
O -1.39249 -9.95437 1.0388
O -1.9436 -10.1995 0.265134
O -2.49254 -10.2375 -0.550461
O -3.00308 -10.1016 -1.38308
O -3.46536 -9.82407 -2.20933
O -3.87839 -9.4197 -3.00668
O -4.22851 -8.88998 -3.75529
O -4.49861 -8.24518 -4.44011
O -4.67983 -7.50547 -5.05006
O -4.76772 -6.68943 -5.57483
O -4.76498 -5.81236 -6.00452
O -4.68668 -4.88913 -6.32651
O -4.55976 -3.93301 -6.52066
O -4.39967 -2.96191 -6.55135
O -4.19006 -2.01419 -6.38752
O -3.89802 -1.14356 -6.0338
O -3.50011 -0.394798 -5.53289
O -2.99666 0.210171 -4.93975
O -2.40924 0.674999 -4.29579
O -1.75755 1.02473 -3.63442
O -1.05797 1.28906 -2.97357
O -0.326551 1.48967 -2.31614
O 0.417879 1.63677 -1.65336
O 1.15731 1.73866 -0.975233
O 1.87655 1.8063 -0.273314
O 2.55555 1.84924 0.466348
O 3.1721 1.87847 1.25627
O 3.70146 1.90272 2.10374
100
Atoms. Timestep: 300
O 4.4834 1.9164 3.03374
O 4.71116 1.91123 4.01371
O 4.73034 1.88458 5.01586
O 4.53066 1.83155 5.9955
O 4.12933 1.76104 6.90974
O 3.55311 1.68538 7.72518
O 2.82977 1.60742 8.41366
O 1.98621 1.52485 8.94687
O 1.05398 1.42869 9.29902
O 0.0715237 1.3117 9.4499
O -0.917356 1.16714 9.39152
O -1.86846 0.986503 9.13383
O -2.74274 0.765205 8.69553
O -3.51015 0.503206 8.1039
O -4.14385 0.202781 7.38463
O -4.61933 -0.127676 6.56307
O -4.9042 -0.471019 5.66187
O -4.97304 -0.805052 4.71489
O -4.81503 -1.11068 3.76676
O -4.45107 -1.38475 2.86231
O -3.92778 -1.63545 2.02449
O -3.293 -1.86828 1.25043
O -2.57631 -2.07845 0.533151
O -1.8023 -2.26132 -0.137192
O -0.991518 -2.40758 -0.77388
O -0.159632 -2.50731 -1.38989
O 0.6841 -2.54506 -1.99264
O 1.52988 -2.50833 -2.58547
O 2.36633 -2.38058 -3.16743
O 3.17657 -2.14567 -3.73974
O 3.94047 -1.78425 -4.29694
O 4.63144 -1.28935 -4.83647
O 5.22379 -0.666073 -5.3524
O 5.69947 0.0682441 -5.83326
O 6.04838 0.894892 -6.26327
O 6.26559 1.79698 -6.61639
O 6.35414 2.75107 -6.86885
O 6.31998 3.73058 -7.00754
O 6.16894 4.70773 -7.03059
O 5.90677 5.65636 -6.93897
O 5.54555 6.55454 -6.74026
O 5.09755 7.38085 -6.43556
O 4.58273 8.11958 -6.02967
O 4.01559 8.75326 -5.52729
O 3.40785 9.26272 -4.93906
O 2.77211 9.62931 -4.27923
O 2.12466 9.8361 -3.56391
O 1.48754 9.87772 -2.81115
O 0.884495 9.76261 -2.03767
O 0.33358 9.50273 -1.25942
O -0.147741 9.10318 -0.492784
O -0.540097 8.5683 0.243546
O -0.826769 7.91304 0.933233
O -1.00025 7.15815 1.56107
O -1.07115 6.32465 2.11718
O -1.05501 5.43185 2.59706
O -0.970656 4.49449 3.00251
O -0.833479 3.52151 3.33902
O -0.655559 2.51852 3.61502
O -0.448303 1.48898 3.84074
O -0.22434 0.441441 4.02186
O -0.000516656 -0.611475 4.15932
O 0.2071 -1.66076 4.24783
O 0.384799 -2.70122 4.27793
O 0.521341 -3.73018 4.23568
O 0.607235 -4.74329 4.10563
O 0.63046 -5.7318 3.87954
O 0.574805 -6.68169 3.55546
O 0.41896 -7.57107 3.12922
O 0.155193 -8.3757 2.60513
O -0.207439 -9.0694 1.9922
O -0.652988 -9.63424 1.30782
O -1.16485 -10.0578 0.571098
O -1.72484 -10.3284 -0.201141
O -2.30875 -10.4316 -0.995479
O -2.89405 -10.3639 -1.79252
O -3.46738 -10.1316 -2.56711
O -4.01728 -9.74212 -3.29369
O -4.52925 -9.20424 -3.94986
O -4.97974 -8.52988 -4.51945
O -5.34336 -7.73844 -4.99223
O -5.59957 -6.8545 -5.36018
O -5.73483 -5.90641 -5.61736
O -5.74027 -4.92446 -5.76217
O -5.6168 -3.93939 -5.80008
O -5.36622 -2.97917 -5.73335
O -4.99038 -2.07118 -5.56606
O -4.49212 -1.24215 -5.31365
O -3.8848 -0.510975 -4.99074
O -3.19221 0.112804 -4.60262
O -2.4406 0.623488 -4.1485
O -1.65506 1.0259 -3.62888
O -0.854535 1.33125 -3.05359
O -0.0541179 1.55365 -2.4329
O 0.734784 1.7059 -1.77415
O 1.5028 1.80203 -1.08139
O 2.23964 1.85707 -0.35326
O 2.931 1.88559 0.415079
O 3.55575 1.90112 1.23157
O 4.08453 1.91098 2.10373
100
Atoms. Timestep: 400
O 4.5016 2.50208 2.89166
O 4.67459 2.4732 3.88395
O 4.65516 2.40372 4.88637
O 4.43989 2.29813 5.86174
O 4.04134 2.16533 6.77433
O 3.47591 2.01432 7.5905
O 2.76819 1.85166 8.28289
O 1.9432 1.67755 8.8237
O 1.03248 1.49121 9.19193
O 0.0716277 1.28719 9.36951
O -0.898761 1.05799 9.34718
O -1.83572 0.797392 9.12548
O -2.69901 0.502054 8.71978
O -3.45348 0.173362 8.1513
O -4.06881 -0.183289 7.44528
O -4.52101 -0.559018 6.63186
O -4.78949 -0.939407 5.74161
O -4.86273 -1.30988 4.80953
O -4.73748 -1.65193 3.86945
O -4.42856 -1.95568 2.95405
O -3.9659 -2.22099 2.08506
O -3.383 -2.44833 1.27091
O -2.71035 -2.63527 0.508814
O -1.97432 -2.77868 -0.209343
O -1.19731 -2.87431 -0.89331
O -0.396875 -2.91378 -1.55208
O 0.412909 -2.88199 -2.19021
O 1.22077 -2.76671 -2.80826
O 2.01779 -2.55486 -3.40006
O 2.79338 -2.23891 -3.95935
O 3.53544 -1.80652 -4.47295
O 4.23069 -1.25617 -4.92967
O 4.86718 -0.601319 -5.32746
O 5.42871 0.143409 -5.67404
O 5.89579 0.96544 -5.97994
O 6.24528 1.85356 -6.25008
O 6.4541 2.79412 -6.47786
O 6.50511 3.76601 -6.64885
O 6.39399 4.7415 -6.7427
O 6.12909 5.6894 -6.73948
O 5.72972 6.57941 -6.62426
O 5.22563 7.38779 -6.39168
O 4.64555 8.0954 -6.04214
O 4.01439 8.68382 -5.57999
O 3.3558 9.13665 -5.01441
O 2.69303 9.44294 -4.36084
O 2.04976 9.59843 -3.63678
O 1.44739 9.60544 -2.8608
O 0.901928 9.47252 -2.05297
O 0.420131 9.20823 -1.23609
O 0.00463084 8.81783 -0.432648
O -0.341724 8.30748 0.336364
O -0.613247 7.68039 1.04813
O -0.803646 6.94915 1.68455
O -0.910305 6.13199 2.23592
O -0.935491 5.25111 2.69991
O -0.88683 4.32577 3.08005
O -0.775141 3.37296 3.38861
O -0.61305 2.40301 3.63666
O -0.416776 1.42247 3.83774
O -0.204632 0.434615 4.00302
O 0.00496136 -0.559355 4.13704
O 0.192731 -1.55905 4.23379
O 0.342706 -2.56323 4.28176
O 0.441037 -3.56827 4.265
O 0.476136 -4.56593 4.16611
O 0.44092 -5.54233 3.96491
O 0.333979 -6.47666 3.64718
O 0.154662 -7.34543 3.21021
O -0.097163 -8.13016 2.66602
O -0.417917 -8.81401 2.03137
O -0.80343 -9.38196 1.32401
O -1.25024 -9.82199 0.564749
O -1.75534 -10.1202 -0.224921
O -2.31127 -10.2599 -1.02217
O -2.90126 -10.2285 -1.80436
O -3.50191 -10.0214 -2.54953
O -4.08478 -9.64169 -3.23836
O -4.62239 -9.10306 -3.85534
O -5.08881 -8.42404 -4.38845
O -5.45639 -7.62526 -4.82888
O -5.69894 -6.73326 -5.1721
O -5.79662 -5.77987 -5.41418
O -5.74241 -4.80183 -5.56029
O -5.53691 -3.83273 -5.61586
O -5.19296 -2.90045 -5.59035
O -4.72954 -2.02459 -5.49258
O -4.16851 -1.21752 -5.32268
O -3.53108 -0.488648 -5.0758
O -2.83743 0.151189 -4.7408
O -2.10432 0.694473 -4.3188
O -1.3474 1.14538 -3.82368
O -0.57814 1.51323 -3.26878
O 0.192948 1.80473 -2.66142
O 0.957449 2.02563 -2.00806
O 1.7037 2.18617 -1.3119
O 2.4181 2.3024 -0.574504
O 3.08327 2.38829 0.207833
O 3.67194 2.45161 1.0448
O 4.15631 2.49219 1.94015
100
Atoms. Timestep: 500
O 4.40213 2.82677 2.84943
O 4.56397 2.8533 3.83456
O 4.53758 2.83891 4.8301
O 4.32303 2.77988 5.80045
O 3.92806 2.67248 6.70849
O 3.36946 2.51328 7.51895
O 2.67276 2.29949 8.20073
O 1.86885 2.031 8.72902
O 0.992848 1.71082 9.08873
O 0.0792895 1.34517 9.2702
O -0.839269 0.946766 9.2712
O -1.73071 0.52831 9.08876
O -2.56157 0.101718 8.72777
O -3.29944 -0.321382 8.2009
O -3.91368 -0.728112 7.52521
O -4.37324 -1.11184 6.726
O -4.65411 -1.46787 5.83742
O -4.74458 -1.79108 4.89857
O -4.64163 -2.0751 3.94756
O -4.35733 -2.31739 3.0186
O -3.91681 -2.52042 2.13571
O -3.35029 -2.68929 1.31178
O -2.68751 -2.82543 0.548176
O -1.95677 -2.93061 -0.162696
O -1.18159 -3.00283 -0.832613
O -0.381093 -3.03455 -1.47382
O 0.428499 -3.01364 -2.09745
O 1.23297 -2.92438 -2.71196
O 2.01975 -2.75055 -3.31985
O 2.77613 -2.476 -3.91766
O 3.48823 -2.08634 -4.49422
O 4.13989 -1.56976 -5.03332
O 4.71651 -0.930802 -5.52009
O 5.20679 -0.184917 -5.94195
O 5.60208 0.649969 -6.28771
O 5.89654 1.55335 -6.55214
O 6.08334 2.50515 -6.73229
O 6.15548 3.48487 -6.82599
O 6.107 4.47075 -6.82511
O 5.93576 5.43767 -6.72425
O 5.64904 6.36031 -6.52169
O 5.25521 7.21475 -6.22259
O 4.76251 7.97585 -5.83178
O 4.18734 8.61978 -5.35285
O 3.5547 9.12643 -4.78872
O 2.89501 9.48601 -4.14699
O 2.23398 9.69537 -3.44216
O 1.59349 9.75092 -2.69021
O 0.993131 9.65027 -1.90928
O 0.450205 9.39374 -1.12084
O -0.019509 8.98681 -0.347687
O -0.405304 8.443 0.388281
O -0.699694 7.77897 1.06776
O -0.898507 7.01734 1.67941
O -0.999729 6.18083 2.21793
O -1.01255 5.28827 2.68217
O -0.949211 4.35568 3.07493
O -0.82357 3.39573 3.40283
O -0.648786 2.41642 3.67264
O -0.437931 1.42451 3.89182
O -0.208617 0.424105 4.06726
O 0.0192266 -0.582639 4.20175
O 0.226117 -1.59492 4.2911
O 0.395819 -2.61036 4.32763
O 0.514491 -3.62477 4.29966
O 0.569101 -4.63081 4.19386
O 0.545361 -5.61635 3.99669
O 0.432454 -6.56343 3.6986
O 0.22402 -7.45075 3.29729
O -0.07881 -8.25455 2.79706
O -0.469601 -8.94991 2.2067
O -0.937553 -9.51212 1.5382
O -1.46556 -9.92037 0.806968
O -2.03205 -10.1621 0.0327268
O -2.6153 -10.233 -0.762514
O -3.19344 -10.1326 -1.55778
O -3.74387 -9.8626 -2.33253
O -4.24365 -9.43509 -3.06953
O -4.6712 -8.86305 -3.75187
O -5.01041 -8.16626 -4.36414
O -5.25114 -7.36582 -4.89026
O -5.38567 -6.48561 -5.318
O -5.40758 -5.55249 -5.64182
O -5.31838 -4.59347 -5.85992
O -5.12189 -3.63256 -5.9741
O -4.82429 -2.69164 -5.98394
O -4.42968 -1.79244 -5.88485
O -3.94633 -0.956304 -5.67689
O -3.38337 -0.205442 -5.36286
O -2.75312 0.44037 -4.94972
O -2.07072 0.974154 -4.45587
O -1.35063 1.40316 -3.90242
O -0.606081 1.74084 -3.30566
O 0.151652 2.00101 -2.67572
O 0.910333 2.2011 -2.01711
O 1.65564 2.35844 -1.32732
O 2.36846 2.48683 -0.598854
O 3.02666 2.59644 0.177606
O 3.60413 2.69057 1.01037
O 4.07259 2.76907 1.90275
100
Atoms. Timestep: 600
O 4.26477 3.067 2.86824
O 4.4321 3.07487 3.85832
O 4.41645 3.03712 4.85869
O 4.21603 2.95152 5.8343
O 3.83938 2.81425 6.74898
O 3.3027 2.62266 7.56839
O 2.62846 2.37637 8.26103
O 1.84656 2.07749 8.80319
O 0.98877 1.73138 9.17614
O 0.0895092 1.34505 9.36817
O -0.817003 0.929212 9.37377
O -1.69651 0.494539 9.19376
O -2.51461 0.0517649 8.8335
O -3.23785 -0.388966 8.30604
O -3.83539 -0.817482 7.63108
O -4.28071 -1.22445 6.83526
O -4.55161 -1.60266 5.95062
O -4.63374 -1.94611 5.01411
O -4.52431 -2.24798 4.06383
O -4.23418 -2.50343 3.13382
O -3.78908 -2.7126 2.24707
O -3.2205 -2.88246 1.4163
O -2.55875 -3.0187 0.642961
O -1.83186 -3.12452 -0.0799911
O -1.06333 -3.19791 -0.763039
O -0.272962 -3.23263 -1.41916
O 0.524162 -3.21558 -2.06006
O 1.31601 -3.13018 -2.69244
O 2.09068 -2.95961 -3.31833
O 2.83464 -2.68658 -3.93536
O 3.53125 -2.29622 -4.53557
O 4.16238 -1.77861 -5.10619
O 4.71179 -1.13873 -5.63364
O 5.1681 -0.389189 -6.09986
O 5.52359 0.453032 -6.4865
O 5.77107 1.36791 -6.77827
O 5.90913 2.33167 -6.96312
O 5.94003 3.31918 -7.03295
O 5.87058 4.30576 -6.98698
O 5.70678 5.2693 -6.82928
O 5.4533 6.18849 -6.56403
O 5.11629 7.04327 -6.19715
O 4.70121 7.8132 -5.7357
O 4.215 8.47984 -5.19105
O 3.66577 9.02336 -4.57465
O 3.06576 9.42561 -3.90009
O 2.43313 9.66863 -3.18034
O 1.79007 9.74307 -2.43248
O 1.15996 9.64792 -1.67496
O 0.565613 9.39048 -0.925088
O 0.0285348 8.98063 -0.199227
O -0.429274 8.43091 0.488805
O -0.788692 7.75847 1.12674
O -1.03781 6.98518 1.70336
O -1.17301 6.13455 2.20938
O -1.20003 5.2269 2.63789
O -1.12797 4.28305 2.99016
O -0.972694 3.32012 3.2763
O -0.752933 2.34886 3.50948
O -0.489245 1.37473 3.70447
O -0.204825 0.39759 3.87143
O 0.0761132 -0.584608 4.01515
O 0.329071 -1.57565 4.13165
O 0.531954 -2.57679 4.20799
O 0.665173 -3.58554 4.22575
O 0.712041 -4.59339 4.16604
O 0.66017 -5.58486 4.01341
O 0.500282 -6.53713 3.75784
O 0.230057 -7.42439 3.39502
O -0.139999 -8.21877 2.92573
O -0.592098 -8.89548 2.35773
O -1.10436 -9.43593 1.70332
O -1.6556 -9.82407 0.977854
O -2.2236 -10.0458 0.198512
O -2.78518 -10.0922 -0.61413
O -3.31884 -9.96647 -1.43684
O -3.80611 -9.68073 -2.24833
O -4.23397 -9.24874 -3.02806
O -4.59307 -8.68656 -3.75808
O -4.87562 -8.00916 -4.42121
O -5.07574 -7.23252 -5.00058
O -5.18805 -6.3752 -5.48227
O -5.21039 -5.45823 -5.85535
O -5.14053 -4.5032 -6.10929
O -4.97463 -3.5344 -6.23724
O -4.71067 -2.57838 -6.23776
O -4.34916 -1.66201 -6.11531
O -3.89302 -0.811734 -5.87688
O -3.35115 -0.0500986 -5.53457
O -2.73793 0.604098 -5.09735
O -2.07059 1.1442 -4.58242
O -1.36504 1.57996 -4.01145
O -0.635532 1.92525 -3.39945
O 0.105518 2.19708 -2.75496
O 0.845627 2.41169 -2.08048
O 1.57102 2.58407 -1.3729
O 2.26437 2.72633 -0.625988
O 2.90606 2.84613 0.167226
O 3.47205 2.94483 1.01334
O 3.93494 3.02097 1.91505
100
Atoms. Timestep: 700
O 4.13727 3.18297 2.8664
O 4.30813 3.17273 3.85282
O 4.30301 3.11396 4.84975
O 4.11928 3.00619 5.82458
O 3.76509 2.84842 6.74341
O 3.25443 2.64039 7.57381
O 2.60614 2.38451 8.28573
O 1.845 2.08392 8.85303
O 0.999251 1.742 9.25128
O 0.1035 1.36222 9.4614
O -0.803231 0.951975 9.47185
O -1.68009 0.520431 9.28292
O -2.48804 0.0777781 8.90544
O -3.19248 -0.367063 8.35956
O -3.76372 -0.805061 7.67003
O -4.18087 -1.22708 6.86797
O -4.42821 -1.62402 5.9855
O -4.49365 -1.98685 5.05607
O -4.37456 -2.30722 4.11473
O -4.07901 -2.57889 3.1936
O -3.63386 -2.80258 2.31425
O -3.06936 -2.98413 1.48873
O -2.41472 -3.12974 0.718018
O -1.69756 -3.24391 -0.00554297
O -0.94079 -3.32555 -0.693128
O -0.162643 -3.36708 -1.35687
O 0.620869 -3.35512 -2.00887
O 1.39634 -3.27264 -2.65652
O 2.15225 -3.09984 -3.30002
O 2.87626 -2.81788 -3.9329
O 3.55305 -2.41417 -4.5437
O 4.16621 -1.88241 -5.11777
O 4.70101 -1.23072 -5.64216
O 5.14721 -0.472351 -6.10011
O 5.49862 0.374432 -6.47695
O 5.75031 1.28924 -6.7618
O 5.89886 2.25041 -6.94708
O 5.94278 3.23575 -7.02726
O 5.88115 4.22263 -6.99773
O 5.71702 5.18771 -6.85637
O 5.45489 6.10697 -6.60251
O 5.10256 6.9569 -6.23954
O 4.67234 7.71711 -5.77535
O 4.17704 8.37035 -5.22151
O 3.62975 8.90189 -4.59125
O 3.04295 9.29931 -3.90032
O 2.42961 9.55128 -3.1652
O 1.80433 9.64827 -2.40388
O 1.18494 9.58327 -1.63461
O 0.5921 9.35403 -0.875688
O 0.0494239 8.9644 -0.144951
O -0.421022 8.42588 0.540447
O -0.798171 7.75565 1.16617
O -1.0656 6.97857 1.72341
O -1.21564 6.1221 2.20802
O -1.25307 5.21083 2.61873
O -1.18822 4.26604 2.95927
O -1.03495 3.30449 3.23953
O -0.810673 2.33683 3.47294
O -0.536634 1.36771 3.6724
O -0.238045 0.396651 3.84638
O 0.0566993 -0.580102 3.99788
O 0.319918 -1.56676 4.1213
O 0.527753 -2.56467 4.20327
O 0.661322 -3.57106 4.2246
O 0.706067 -4.57682 4.16701
O 0.649312 -5.56565 4.01535
O 0.483314 -6.51419 3.7575
O 0.20686 -7.39547 3.38909
O -0.16724 -8.18155 2.91133
O -0.619828 -8.84768 2.33218
O -1.12937 -9.37404 1.66419
O -1.67288 -9.74692 0.924019
O -2.22928 -9.95608 0.131337
O -2.77889 -10.0004 -0.691509
O -3.30467 -9.88408 -1.52264
O -3.7922 -9.61257 -2.34057
O -4.2276 -9.19253 -3.12402
O -4.59878 -8.63516 -3.85274
O -4.89486 -7.95623 -4.50888
O -5.10581 -7.17314 -5.0757
O -5.22322 -6.30701 -5.5396
O -5.24245 -5.38224 -5.89178
O -5.16128 -4.424 -6.12703
O -4.9804 -3.45734 -6.24474
O -4.70078 -2.50652 -6.24408
O -4.32769 -1.59512 -6.12712
O -3.86785 -0.745811 -5.89881
O -3.32899 0.019756 -5.56652
O -2.72327 0.683484 -5.13825
O -2.06731 1.23753 -4.62818
O -1.37612 1.6874 -4.0552
O -0.663131 2.04479 -3.4359
O 0.060632 2.32545 -2.78144
O 0.783605 2.54562 -2.09648
O 1.49216 2.72138 -1.3798
O 2.17019 2.86461 -0.626797
O 2.79841 2.98402 0.169315
O 3.35394 3.08068 1.01563
O 3.8098 3.14946 1.91598
100
Atoms. Timestep: 800
O 4.12118 3.22608 2.8779
O 4.29861 3.22406 3.86404
O 4.30153 3.17529 4.86238
O 4.1267 3.07997 5.84067
O 3.77799 2.93455 6.76366
O 3.26723 2.73421 7.59568
O 2.61559 2.47651 8.30371
O 1.85221 2.16373 8.86169
O 1.00944 1.80122 9.24894
O 0.12211 1.3973 9.4517
O -0.773567 0.962196 9.46399
O -1.6414 0.506794 9.28594
O -2.4453 0.0426922 8.92357
O -3.15031 -0.419905 8.39178
O -3.72572 -0.869051 7.71187
O -4.14576 -1.29479 6.9124
O -4.39116 -1.6892 6.02737
O -4.45133 -2.04631 5.09412
O -4.32571 -2.36139 4.15024
O -4.02584 -2.62929 3.22757
O -3.57804 -2.85063 2.34712
O -3.0118 -3.03069 1.5203
O -2.35574 -3.1747 0.748537
O -1.63669 -3.28671 0.0252168
O -0.877558 -3.36532 -0.661027
O -0.0966142 -3.40293 -1.3222
O 0.691492 -3.38718 -1.96935
O 1.47381 -3.30213 -2.60925
O 2.23836 -3.13035 -3.24368
O 2.9713 -2.85462 -3.86943
O 3.65637 -2.46012 -4.47726
O 4.27634 -1.93883 -5.0539
O 4.81523 -1.29525 -5.5848
O 5.26139 -0.541448 -6.05139
O 5.60608 0.305132 -6.43641
O 5.8452 1.22267 -6.72599
O 5.97851 2.18712 -6.91177
O 6.00725 3.1745 -6.98987
O 5.93352 4.16191 -6.95936
O 5.76067 5.12728 -6.82181
O 5.49218 6.04888 -6.57947
O 5.13377 6.90483 -6.23528
O 4.6945 7.67498 -5.79574
O 4.18445 8.3397 -5.26943
O 3.61652 8.88052 -4.66606
O 3.00682 9.28254 -3.99809
O 2.37353 9.53471 -3.28022
O 1.73562 9.62846 -2.52851
O 1.11324 9.55959 -1.76059
O 0.527506 9.32866 -0.994647
O -0.00130383 8.94317 -0.248937
O -0.454182 8.41399 0.458804
O -0.814924 7.75747 1.11245
O -1.07129 6.99547 1.70007
O -1.21719 6.15246 2.21461
O -1.25567 5.25008 2.65209
O -1.19463 4.30915 3.01422
O -1.0473 3.34693 3.30998
O -0.83051 2.37443 3.55161
O -0.565208 1.3973 3.75212
O -0.275886 0.416655 3.92179
O 0.0107176 -0.569979 4.06308
O 0.267573 -1.56573 4.17127
O 0.471768 -2.57112 4.23396
O 0.604664 -3.58258 4.23404
O 0.652182 -4.59087 4.15492
O 0.603766 -5.58028 3.98012
O 0.45243 -6.52846 3.69911
O 0.196136 -7.41002 3.30855
O -0.156922 -8.19673 2.81051
O -0.592073 -8.86386 2.21511
O -1.08999 -9.39135 1.53636
O -1.62961 -9.76487 0.791628
O -2.19024 -9.97576 0.00078056
O -2.75281 -10.02 -0.81444
O -3.2986 -9.89861 -1.63272
O -3.80833 -9.61512 -2.43357
O -4.2636 -9.17898 -3.19749
O -4.64927 -8.60539 -3.90677
O -4.95324 -7.91144 -4.54468
O -5.16785 -7.11718 -5.09626
O -5.2882 -6.24457 -5.54953
O -5.31175 -5.31609 -5.89505
O -5.23777 -4.35504 -6.12639
O -5.0657 -3.38515 -6.23939
O -4.79555 -2.43094 -6.23171
O -4.42835 -1.51815 -6.10444
O -3.96911 -0.671493 -5.86421
O -3.42689 0.0866478 -5.52027
O -2.81422 0.738736 -5.08432
O -2.14834 1.27932 -4.57231
O -1.44618 1.71719 -4.0032
O -0.722143 2.06671 -3.39148
O 0.0111229 2.34436 -2.74534
O 0.74165 2.56528 -2.06765
O 1.45596 2.74413 -1.35668
O 2.13861 2.89189 -0.607945
O 2.77065 3.01496 0.185261
O 3.32943 3.11436 1.02963
O 3.78871 3.18675 1.92863
100
Atoms. Timestep: 900
O 4.12425 3.26873 2.88362
O 4.30475 3.27443 3.86867
O 4.30711 3.22866 4.8666
O 4.12949 3.13086 5.84378
O 3.77869 2.97772 6.76462
O 3.26952 2.76782 7.59531
O 2.62273 2.50134 8.30458
O 1.86482 2.18057 8.86537
O 1.02681 1.81112 9.25635
O 0.143748 1.39992 9.46274
O -0.747645 0.95633 9.47703
O -1.61046 0.491587 9.2992
O -2.4083 0.0173721 8.9368
O -3.10739 -0.454327 8.40512
O -3.67808 -0.912296 7.72703
O -4.09713 -1.34656 6.93167
O -4.34537 -1.74798 6.05072
O -4.41048 -2.10936 5.11962
O -4.28982 -2.42364 4.17494
O -3.99231 -2.68469 3.2494
O -3.54407 -2.89537 2.36605
O -2.97518 -3.06288 1.53765
O -2.31434 -3.1948 0.766818
O -1.58876 -3.29648 0.0473487
O -0.821643 -3.36725 -0.631658
O -0.0332001 -3.40119 -1.28422
O 0.761284 -3.38585 -1.92255
O 1.54888 -3.30461 -2.55462
O 2.31752 -3.13858 -3.18341
O 3.05382 -2.86826 -3.80514
O 3.74159 -2.47664 -4.40919
O 4.36414 -1.95515 -4.98024
O 4.90591 -1.31007 -5.50403
O 5.35512 -0.556086 -5.96485
O 5.70327 0.288081 -6.34928
O 5.94496 1.20146 -6.64601
O 6.07689 2.16203 -6.8457
O 6.0973 3.14673 -6.94139
O 6.00891 4.13189 -6.9305
O 5.81569 5.09449 -6.81216
O 5.52405 6.01212 -6.5876
O 5.14333 6.86311 -6.25896
O 4.68457 7.62779 -5.83252
O 4.15989 8.28759 -5.31632
O 3.58251 8.82571 -4.7211
O 2.96729 9.22753 -4.05955
O 2.33058 9.48083 -3.34661
O 1.69136 9.57684 -2.59789
O 1.06983 9.51217 -1.83062
O 0.486614 9.28676 -1.06295
O -0.0390388 8.90619 -0.314148
O -0.488495 8.38269 0.398392
O -0.84598 7.73257 1.0587
O -1.09892 6.97648 1.6539
O -1.24085 6.13857 2.17574
O -1.27578 5.24011 2.61847
O -1.21298 4.30289 2.98483
O -1.06511 3.34427 3.28395
O -0.84846 2.3756 3.52827
O -0.583364 1.40254 3.73047
O -0.294218 0.425815 3.90054
O -0.00799271 -0.55736 4.04173
O 0.248602 -1.55053 4.14894
O 0.451827 -2.55416 4.20895
O 0.583351 -3.56441 4.20504
O 0.629541 -4.5713 4.11948
O 0.580052 -5.55867 3.93738
O 0.428541 -6.50408 3.6493
O 0.173877 -7.38265 3.25249
O -0.175075 -8.16709 2.74938
O -0.603674 -8.83271 2.1489
O -1.09436 -9.36075 1.46664
O -1.62829 -9.73588 0.720046
O -2.18587 -9.9467 -0.0713688
O -2.74683 -9.98879 -0.886337
O -3.29181 -9.86387 -1.70334
O -3.80375 -9.57785 -2.50064
O -4.26647 -9.1412 -3.25861
O -4.6653 -8.56747 -3.95921
O -4.98814 -7.8731 -4.58562
O -5.22417 -7.07724 -5.12386
O -5.365 -6.20143 -5.56227
O -5.40403 -5.26871 -5.89087
O -5.33824 -4.30409 -6.10371
O -5.16721 -3.33334 -6.19844
O -4.89184 -2.38208 -6.17671
O -4.51636 -1.4748 -6.04224
O -4.04807 -0.634569 -5.80109
O -3.49741 0.117456 -5.4604
O -2.8786 0.763868 -5.0269
O -2.20865 1.29889 -4.51629
O -1.5031 1.73088 -3.94837
O -0.77568 2.07373 -3.33812
O -0.0381426 2.34544 -2.69551
O 0.698125 2.56319 -2.02389
O 1.4197 2.74281 -1.32072
O 2.1102 2.8948 -0.580003
O 2.75067 3.02552 0.205546
O 3.31826 3.13505 1.04324
O 3.78573 3.21885 1.93715
100
Atoms. Timestep: 1000
O 4.0942 3.3039 2.89763
O 4.28 3.30404 3.88142
O 4.29038 3.2526 4.87857
O 4.12233 3.14949 5.85622
O 3.7807 2.99157 6.77886
O 3.27891 2.77597 7.61177
O 2.63776 2.50331 8.32307
O 1.88415 2.17651 8.88558
O 1.05017 1.80103 9.27901
O 0.169976 1.38474 9.48764
O -0.719337 0.936665 9.50326
O -1.58075 0.468617 9.32638
O -2.37818 -0.00762403 8.96542
O -3.07738 -0.480857 8.4353
O -3.64783 -0.939737 7.75788
O -4.06401 -1.37417 6.96132
O -4.30725 -1.77567 6.07912
O -4.36682 -2.13769 5.14793
O -4.24121 -2.45411 4.20447
O -3.94037 -2.71894 3.28081
O -3.49024 -2.93371 2.39882
O -2.92025 -3.10436 1.57087
O -2.25906 -3.23781 0.799383
O -1.5341 -3.33912 0.0780543
O -0.768595 -3.40781 -0.604064
O 0.0187158 -3.43749 -1.25913
O 0.813255 -3.41631 -1.89804
O 1.60239 -3.32834 -2.52817
O 2.37392 -3.15557 -3.15234
O 3.11427 -2.88029 -3.76764
O 3.80687 -2.48661 -4.36531
O 4.43445 -1.96537 -4.9312
O 4.98052 -1.32223 -5.45217
O 5.43197 -0.571037 -5.91445
O 5.78022 0.270229 -6.30393
O 6.01884 1.18144 -6.60822
O 6.14512 2.1404 -6.81682
O 6.15765 3.12385 -6.92225
O 6.05926 4.10787 -6.92085
O 5.85534 5.06919 -6.81129
O 5.55307 5.98549 -6.59495
O 5.16193 6.83524 -6.2744
O 4.69301 7.59849 -5.85539
O 4.15849 8.25659 -5.34588
O 3.57263 8.79316 -4.75628
O 2.95137 9.19445 -4.09897
O 2.3111 9.44937 -3.38865
O 1.66962 9.54968 -2.64118
O 1.0452 9.49122 -1.87448
O 0.457639 9.27321 -1.10664
O -0.0739187 8.89981 -0.356958
O -0.531411 8.38179 0.355926
O -0.897286 7.73463 1.01622
O -1.1576 6.97898 1.61063
O -1.30449 6.13989 2.13128
O -1.34013 5.23973 2.57335
O -1.27354 4.30134 2.94008
O -1.11869 3.34259 3.24088
O -0.893135 2.37462 3.48776
O -0.618105 1.40269 3.69269
O -0.318474 0.427114 3.86559
O -0.0217455 -0.555314 4.0098
O 0.244922 -1.54803 4.1204
O 0.457392 -2.55214 4.18365
O 0.596015 -3.56386 4.18238
O 0.645774 -4.57286 4.09919
O 0.59575 -5.56212 3.91818
O 0.440036 -6.50777 3.62868
O 0.178431 -7.38391 3.22824
O -0.178438 -8.16311 2.72057
O -0.613944 -8.82175 2.11617
O -1.11012 -9.34171 1.43073
O -1.64784 -9.70987 0.682438