50
Atoms. Timestep: 0
O 2.63684 5.66781 1.85366
O 2.38372 5.44032 3.74106
O 1.88368 4.77967 5.46962
O 1.15259 3.70542 6.87736
O 0.256369 2.29219 7.8089
O -0.692846 0.66578 8.15663
O -1.57133 -1.01361 7.88237
O -2.26663 -2.58069 7.02817
O -2.6948 -3.89787 5.7041
O -2.83025 -4.87106 4.05776
O -2.69941 -5.45506 2.23531
O -2.34435 -5.64569 0.359127
O -1.81255 -5.46036 -1.47588
O -1.15087 -4.92215 -3.1957
O -0.403485 -4.05383 -4.73604
O 0.387506 -2.88209 -6.03446
O 1.17942 -1.44186 -7.02518
O 1.92594 0.215556 -7.63873
O 2.58016 2.01015 -7.8108
O 3.09306 3.83027 -7.49544
O 3.42311 5.53507 -6.6844
O 3.54752 6.97226 -5.42317
O 3.4661 8.00703 -3.81254
O 3.2007 8.54895 -1.99365
O 2.79045 8.56644 -0.121244
O 2.28297 8.08447 1.66406
O 1.72554 7.16835 3.25464
O 1.15818 5.90347 4.58159
O 0.612395 4.3774 5.61022
O 0.107804 2.66941 6.32758
O -0.366902 0.850484 6.7189
O -0.82826 -1.01266 6.77115
O -1.29004 -2.8521 6.47232
O -1.76276 -4.5917 5.81297
O -2.23011 -6.14646 4.79007
O -2.64804 -7.42178 3.41963
O -2.96871 -8.31533 1.75386
O -3.14498 -8.73388 -0.10808
O -3.13984 -8.61881 -2.02061
O -2.93573 -7.97079 -3.81195
O -2.53939 -6.85451 -5.31795
O -1.98155 -5.38419 -6.41351
O -1.30855 -3.69835 -7.03067
O -0.57221 -1.93176 -7.15588
O 0.17858 -0.198951 -6.81684
O 0.897574 1.41242 -6.0621
O 1.54176 2.83639 -4.94788
O 2.0724 4.02015 -3.53307
O 2.4538 4.91676 -1.87934
O 2.65222 5.48078 -0.0557365
50
Atoms. Timestep: 100
O 3.93225 4.00784 2.80497
O 3.94073 3.84921 4.87573
O 3.39289 3.41295 6.79246
O 2.32544 2.73302 8.35011
O 0.802317 1.91661 9.34263
O -0.956978 1.01489 9.5934
O -2.59291 0.0132413 9.06302
O -3.768 -1.06815 7.87216
O -4.3462 -2.1077 6.24162
O -4.32691 -2.95486 4.36514
O -3.73453 -3.5636 2.4423
O -2.65171 -3.94506 0.625213
O -1.20967 -4.17174 -1.01776
O 0.246067 -4.20164 -2.65437
O 1.53899 -3.7604 -4.30521
O 2.63156 -2.85665 -5.86135
O 3.43952 -1.50859 -7.22411
O 3.91091 0.241976 -8.20506
O 4.06227 2.25108 -8.58438
O 4.03052 4.27323 -8.25297
O 3.94866 6.0836 -7.29031
O 3.8604 7.57196 -5.87656
O 3.67864 8.71906 -4.16599
O 3.28851 9.50094 -2.26835
O 2.5676 9.86351 -0.340812
O 1.50541 9.62428 1.42885
O 0.348596 8.63305 2.84492
O -0.550174 6.98211 3.78248
O -0.919931 4.92993 4.2597
O -0.733342 2.75087 4.5403
O -0.271633 0.563008 4.83404
O 0.180479 -1.6183 5.16874
O 0.349838 -3.7894 5.47786
O -0.0279172 -5.8887 5.50666
O -0.885657 -7.70735 4.90899
O -1.91227 -9.00802 3.65179
O -2.79287 -9.66211 1.89214
O -3.30435 -9.7463 -0.12235
O -3.44932 -9.41403 -2.16808
O -3.40765 -8.72141 -4.10651
O -3.355 -7.58754 -5.81039
O -3.29747 -5.98217 -7.07341
O -3.14905 -4.04025 -7.69026
O -2.77249 -2.02568 -7.58558
O -2.09701 -0.198942 -6.88481
O -1.15282 1.29933 -5.77715
O -0.00293672 2.43784 -4.42204
O 1.23225 3.22345 -2.85976
O 2.45378 3.68142 -1.13269
O 3.40864 3.95341 0.765678
50
Atoms. Timestep: 200
O 4.11354 1.93179 3.00868
O 4.44494 2.00979 4.94873
O 3.94901 2.08523 6.84207
O 2.6638 2.00806 8.32342
O 0.937503 1.64527 9.20507
O -0.938895 1.07841 9.37665
O -2.69069 0.432496 8.74636
O -4.05004 -0.132592 7.44212
O -4.66835 -0.626004 5.64724
O -4.43146 -1.10874 3.75571
O -3.51788 -1.57038 2.05807
O -2.17939 -1.9852 0.628521
O -0.634326 -2.29357 -0.615441
O 0.946124 -2.42725 -1.836
O 2.44596 -2.33265 -3.1366
O 3.75544 -1.91536 -4.54082
O 4.7094 -0.96562 -5.94992
O 5.18206 0.586135 -7.02452
O 5.33371 2.48302 -7.44846
O 5.28463 4.42068 -7.29298
O 4.9396 6.21942 -6.67204
O 4.30677 7.76939 -5.68822
O 3.43501 8.96668 -4.41769
O 2.39171 9.72898 -2.95215
O 1.20796 9.83192 -1.41918
O 0.170706 9.09797 0.0281814
O -0.460132 7.74731 1.24745
O -0.688586 6.08922 2.22243
O -0.689473 4.28297 2.97514
O -0.527972 2.3865 3.51096
O -0.230232 0.446469 3.88142
O 0.0702605 -1.51777 4.10897
O 0.245912 -3.49312 4.13495
O 0.263474 -5.43768 3.88871
O 0.0624454 -7.27967 3.31256
O -0.470706 -8.8782 2.36243
O -1.39249 -9.95437 1.0388
O -2.49254 -10.2375 -0.550461
O -3.46536 -9.82407 -2.20933
O -4.22851 -8.88998 -3.75529
O -4.67983 -7.50547 -5.05006
O -4.76498 -5.81236 -6.00452
O -4.55976 -3.93301 -6.52066
O -4.19006 -2.01419 -6.38752
O -3.50011 -0.394798 -5.53289
O -2.40924 0.674999 -4.29579
O -1.05797 1.28906 -2.97357
O 0.417879 1.63677 -1.65336
O 1.87655 1.8063 -0.273314
O 3.1721 1.87847 1.25627
50
Atoms. Timestep: 300
O 4.4834 1.9164 3.03374
O 4.73034 1.88458 5.01586
O 4.12933 1.76104 6.90974
O 2.82977 1.60742 8.41366
O 1.05398 1.42869 9.29902
O -0.917356 1.16714 9.39152
O -2.74274 0.765205 8.69553
O -4.14385 0.202781 7.38463
O -4.9042 -0.471019 5.66187
O -4.81503 -1.11068 3.76676
O -3.92778 -1.63545 2.02449
O -2.57631 -2.07845 0.533151
O -0.991518 -2.40758 -0.77388
O 0.6841 -2.54506 -1.99264
O 2.36633 -2.38058 -3.16743
O 3.94047 -1.78425 -4.29694
O 5.22379 -0.666073 -5.3524
O 6.04838 0.894892 -6.26327
O 6.35414 2.75107 -6.86885
O 6.16894 4.70773 -7.03059
O 5.54555 6.55454 -6.74026
O 4.58273 8.11958 -6.02967
O 3.40785 9.26272 -4.93906
O 2.12466 9.8361 -3.56391
O 0.884495 9.76261 -2.03767
O -0.147741 9.10318 -0.492784
O -0.826769 7.91304 0.933233
O -1.07115 6.32465 2.11718
O -0.970656 4.49449 3.00251
O -0.655559 2.51852 3.61502
O -0.22434 0.441441 4.02186
O 0.2071 -1.66076 4.24783
O 0.521341 -3.73018 4.23568
O 0.63046 -5.7318 3.87954
O 0.41896 -7.57107 3.12922
O -0.207439 -9.0694 1.9922
O -1.16485 -10.0578 0.571098
O -2.30875 -10.4316 -0.995479
O -3.46738 -10.1316 -2.56711
O -4.52925 -9.20424 -3.94986
O -5.34336 -7.73844 -4.99223
O -5.73483 -5.90641 -5.61736
O -5.6168 -3.93939 -5.80008
O -4.99038 -2.07118 -5.56606
O -3.8848 -0.510975 -4.99074
O -2.4406 0.623488 -4.1485
O -0.854535 1.33125 -3.05359
O 0.734784 1.7059 -1.77415
O 2.23964 1.85707 -0.35326
O 3.55575 1.90112 1.23157
50
Atoms. Timestep: 400
O 4.5016 2.50208 2.89166
O 4.65516 2.40372 4.88637
O 4.04134 2.16533 6.77433
O 2.76819 1.85166 8.28289
O 1.03248 1.49121 9.19193
O -0.898761 1.05799 9.34718
O -2.69901 0.502054 8.71978
O -4.06881 -0.183289 7.44528
O -4.78949 -0.939407 5.74161
O -4.73748 -1.65193 3.86945
O -3.9659 -2.22099 2.08506
O -2.71035 -2.63527 0.508814
O -1.19731 -2.87431 -0.89331
O 0.412909 -2.88199 -2.19021
O 2.01779 -2.55486 -3.40006
O 3.53544 -1.80652 -4.47295
O 4.86718 -0.601319 -5.32746
O 5.89579 0.96544 -5.97994
O 6.4541 2.79412 -6.47786
O 6.39399 4.7415 -6.7427
O 5.72972 6.57941 -6.62426
O 4.64555 8.0954 -6.04214
O 3.3558 9.13665 -5.01441
O 2.04976 9.59843 -3.63678
O 0.901928 9.47252 -2.05297
O 0.00463084 8.81783 -0.432648
O -0.613247 7.68039 1.04813
O -0.910305 6.13199 2.23592
O -0.88683 4.32577 3.08005
O -0.61305 2.40301 3.63666
O -0.204632 0.434615 4.00302
O 0.192731 -1.55905 4.23379
O 0.441037 -3.56827 4.265
O 0.44092 -5.54233 3.96491
O 0.154662 -7.34543 3.21021
O -0.417917 -8.81401 2.03137
O -1.25024 -9.82199 0.564749
O -2.31127 -10.2599 -1.02217
O -3.50191 -10.0214 -2.54953
O -4.62239 -9.10306 -3.85534
O -5.45639 -7.62526 -4.82888
O -5.79662 -5.77987 -5.41418
O -5.53691 -3.83273 -5.61586
O -4.72954 -2.02459 -5.49258
O -3.53108 -0.488648 -5.0758
O -2.10432 0.694473 -4.3188
O -0.57814 1.51323 -3.26878
O 0.957449 2.02563 -2.00806
O 2.4181 2.3024 -0.574504
O 3.67194 2.45161 1.0448
50
Atoms. Timestep: 500
O 4.40213 2.82677 2.84943
O 4.53758 2.83891 4.8301
O 3.92806 2.67248 6.70849
O 2.67276 2.29949 8.20073
O 0.992848 1.71082 9.08873
O -0.839269 0.946766 9.2712
O -2.56157 0.101718 8.72777
O -3.91368 -0.728112 7.52521
O -4.65411 -1.46787 5.83742
O -4.64163 -2.0751 3.94756
O -3.91681 -2.52042 2.13571
O -2.68751 -2.82543 0.548176
O -1.18159 -3.00283 -0.832613
O 0.428499 -3.01364 -2.09745
O 2.01975 -2.75055 -3.31985
O 3.48823 -2.08634 -4.49422
O 4.71651 -0.930802 -5.52009
O 5.60208 0.649969 -6.28771
O 6.08334 2.50515 -6.73229
O 6.107 4.47075 -6.82511
O 5.64904 6.36031 -6.52169
O 4.76251 7.97585 -5.83178
O 3.5547 9.12643 -4.78872
O 2.23398 9.69537 -3.44216
O 0.993131 9.65027 -1.90928
O -0.019509 8.98681 -0.347687
O -0.699694 7.77897 1.06776
O -0.999729 6.18083 2.21793
O -0.949211 4.35568 3.07493
O -0.648786 2.41642 3.67264
O -0.208617 0.424105 4.06726
O 0.226117 -1.59492 4.2911
O 0.514491 -3.62477 4.29966
O 0.545361 -5.61635 3.99669
O 0.22402 -7.45075 3.29729
O -0.469601 -8.94991 2.2067
O -1.46556 -9.92037 0.806968
O -2.6153 -10.233 -0.762514
O -3.74387 -9.8626 -2.33253
O -4.6712 -8.86305 -3.75187
O -5.25114 -7.36582 -4.89026
O -5.40758 -5.55249 -5.64182
O -5.12189 -3.63256 -5.9741
O -4.42968 -1.79244 -5.88485
O -3.38337 -0.205442 -5.36286
O -2.07072 0.974154 -4.45587
O -0.606081 1.74084 -3.30566
O 0.910333 2.2011 -2.01711
O 2.36846 2.48683 -0.598854
O 3.60413 2.69057 1.01037
50
Atoms. Timestep: 600
O 4.26477 3.067 2.86824
O 4.41645 3.03712 4.85869
O 3.83938 2.81425 6.74898
O 2.62846 2.37637 8.26103
O 0.98877 1.73138 9.17614
O -0.817003 0.929212 9.37377
O -2.51461 0.0517649 8.8335
O -3.83539 -0.817482 7.63108
O -4.55161 -1.60266 5.95062
O -4.52431 -2.24798 4.06383
O -3.78908 -2.7126 2.24707
O -2.55875 -3.0187 0.642961
O -1.06333 -3.19791 -0.763039
O 0.524162 -3.21558 -2.06006
O 2.09068 -2.95961 -3.31833
O 3.53125 -2.29622 -4.53557
O 4.71179 -1.13873 -5.63364
O 5.52359 0.453032 -6.4865
O 5.90913 2.33167 -6.96312
O 5.87058 4.30576 -6.98698
O 5.4533 6.18849 -6.56403
O 4.70121 7.8132 -5.7357
O 3.66577 9.02336 -4.57465
O 2.43313 9.66863 -3.18034
O 1.15996 9.64792 -1.67496
O 0.0285348 8.98063 -0.199227
O -0.788692 7.75847 1.12674
O -1.17301 6.13455 2.20938
O -1.12797 4.28305 2.99016
O -0.752933 2.34886 3.50948
O -0.204825 0.39759 3.87143
O 0.329071 -1.57565 4.13165
O 0.665173 -3.58554 4.22575
O 0.66017 -5.58486 4.01341
O 0.230057 -7.42439 3.39502
O -0.592098 -8.89548 2.35773
O -1.6556 -9.82407 0.977854
O -2.78518 -10.0922 -0.61413
O -3.80611 -9.68073 -2.24833
O -4.59307 -8.68656 -3.75808
O -5.07574 -7.23252 -5.00058
O -5.21039 -5.45823 -5.85535
O -4.97463 -3.5344 -6.23724
O -4.34916 -1.66201 -6.11531
O -3.35115 -0.0500986 -5.53457
O -2.07059 1.1442 -4.58242
O -0.635532 1.92525 -3.39945
O 0.845627 2.41169 -2.08048
O 2.26437 2.72633 -0.625988
O 3.47205 2.94483 1.01334
50
Atoms. Timestep: 700
O 4.13727 3.18297 2.8664
O 4.30301 3.11396 4.84975
O 3.76509 2.84842 6.74341
O 2.60614 2.38451 8.28573
O 0.999251 1.742 9.25128
O -0.803231 0.951975 9.47185
O -2.48804 0.0777781 8.90544
O -3.76372 -0.805061 7.67003
O -4.42821 -1.62402 5.9855
O -4.37456 -2.30722 4.11473
O -3.63386 -2.80258 2.31425
O -2.41472 -3.12974 0.718018
O -0.94079 -3.32555 -0.693128
O 0.620869 -3.35512 -2.00887
O 2.15225 -3.09984 -3.30002
O 3.55305 -2.41417 -4.5437
O 4.70101 -1.23072 -5.64216
O 5.49862 0.374432 -6.47695
O 5.89886 2.25041 -6.94708
O 5.88115 4.22263 -6.99773
O 5.45489 6.10697 -6.60251
O 4.67234 7.71711 -5.77535
O 3.62975 8.90189 -4.59125
O 2.42961 9.55128 -3.1652
O 1.18494 9.58327 -1.63461
O 0.0494239 8.9644 -0.144951
O -0.798171 7.75565 1.16617
O -1.21564 6.1221 2.20802
O -1.18822 4.26604 2.95927
O -0.810673 2.33683 3.47294
O -0.238045 0.396651 3.84638
O 0.319918 -1.56676 4.1213
O 0.661322 -3.57106 4.2246
O 0.649312 -5.56565 4.01535
O 0.20686 -7.39547 3.38909
O -0.619828 -8.84768 2.33218
O -1.67288 -9.74692 0.924019
O -2.77889 -10.0004 -0.691509
O -3.7922 -9.61257 -2.34057
O -4.59878 -8.63516 -3.85274
O -5.10581 -7.17314 -5.0757
O -5.24245 -5.38224 -5.89178
O -4.9804 -3.45734 -6.24474
O -4.32769 -1.59512 -6.12712
O -3.32899 0.019756 -5.56652
O -2.06731 1.23753 -4.62818
O -0.663131 2.04479 -3.4359
O 0.783605 2.54562 -2.09648
O 2.17019 2.86461 -0.626797
O 3.35394 3.08068 1.01563
50
Atoms. Timestep: 800
O 4.12118 3.22608 2.8779
O 4.30153 3.17529 4.86238
O 3.77799 2.93455 6.76366
O 2.61559 2.47651 8.30371
O 1.00944 1.80122 9.24894
O -0.773567 0.962196 9.46399
O -2.4453 0.0426922 8.92357
O -3.72572 -0.869051 7.71187
O -4.39116 -1.6892 6.02737
O -4.32571 -2.36139 4.15024
O -3.57804 -2.85063 2.34712
O -2.35574 -3.1747 0.748537
O -0.877558 -3.36532 -0.661027
O 0.691492 -3.38718 -1.96935
O 2.23836 -3.13035 -3.24368
O 3.65637 -2.46012 -4.47726
O 4.81523 -1.29525 -5.5848
O 5.60608 0.305132 -6.43641
O 5.97851 2.18712 -6.91177
O 5.93352 4.16191 -6.95936
O 5.49218 6.04888 -6.57947
O 4.6945 7.67498 -5.79574
O 3.61652 8.88052 -4.66606
O 2.37353 9.53471 -3.28022
O 1.11324 9.55959 -1.76059
O -0.00130383 8.94317 -0.248937
O -0.814924 7.75747 1.11245
O -1.21719 6.15246 2.21461
O -1.19463 4.30915 3.01422
O -0.83051 2.37443 3.55161
O -0.275886 0.416655 3.92179
O 0.267573 -1.56573 4.17127
O 0.604664 -3.58258 4.23404
O 0.603766 -5.58028 3.98012
O 0.196136 -7.41002 3.30855
O -0.592073 -8.86386 2.21511
O -1.62961 -9.76487 0.791628
O -2.75281 -10.02 -0.81444
O -3.80833 -9.61512 -2.43357
O -4.64927 -8.60539 -3.90677
O -5.16785 -7.11718 -5.09626
O -5.31175 -5.31609 -5.89505
O -5.0657 -3.38515 -6.23939
O -4.42835 -1.51815 -6.10444
O -3.42689 0.0866478 -5.52027
O -2.14834 1.27932 -4.57231
O -0.722143 2.06671 -3.39148
O 0.74165 2.56528 -2.06765
O 2.13861 2.89189 -0.607945
O 3.32943 3.11436 1.02963
50
Atoms. Timestep: 900
O 4.12425 3.26873 2.88362
O 4.30711 3.22866 4.8666
O 3.77869 2.97772 6.76462
O 2.62273 2.50134 8.30458
O 1.02681 1.81112 9.25635
O -0.747645 0.95633 9.47703
O -2.4083 0.0173721 8.9368
O -3.67808 -0.912296 7.72703
O -4.34537 -1.74798 6.05072
O -4.28982 -2.42364 4.17494
O -3.54407 -2.89537 2.36605
O -2.31434 -3.1948 0.766818
O -0.821643 -3.36725 -0.631658
O 0.761284 -3.38585 -1.92255
O 2.31752 -3.13858 -3.18341
O 3.74159 -2.47664 -4.40919
O 4.90591 -1.31007 -5.50403
O 5.70327 0.288081 -6.34928
O 6.07689 2.16203 -6.8457
O 6.00891 4.13189 -6.9305
O 5.52405 6.01212 -6.5876
O 4.68457 7.62779 -5.83252
O 3.58251 8.82571 -4.7211
O 2.33058 9.48083 -3.34661
O 1.06983 9.51217 -1.83062
O -0.0390388 8.90619 -0.314148
O -0.84598 7.73257 1.0587
O -1.24085 6.13857 2.17574
O -1.21298 4.30289 2.98483
O -0.84846 2.3756 3.52827
O -0.294218 0.425815 3.90054
O 0.248602 -1.55053 4.14894
O 0.583351 -3.56441 4.20504
O 0.580052 -5.55867 3.93738
O 0.173877 -7.38265 3.25249
O -0.603674 -8.83271 2.1489
O -1.62829 -9.73588 0.720046
O -2.74683 -9.98879 -0.886337
O -3.80375 -9.57785 -2.50064
O -4.6653 -8.56747 -3.95921
O -5.22417 -7.07724 -5.12386
O -5.40403 -5.26871 -5.89087
O -5.16721 -3.33334 -6.19844
O -4.51636 -1.4748 -6.04224
O -3.49741 0.117456 -5.4604
O -2.20865 1.29889 -4.51629
O -0.77568 2.07373 -3.33812
O 0.698125 2.56319 -2.02389
O 2.1102 2.8948 -0.580003
O 3.31826 3.13505 1.04324
50
Atoms. Timestep: 1000
O 4.0942 3.3039 2.89763
O 4.29038 3.2526 4.87857
O 3.7807 2.99157 6.77886
O 2.63776 2.50331 8.32307
O 1.05017 1.80103 9.27901
O -0.719337 0.936665 9.50326
O -2.37818 -0.00762403 8.96542
O -3.64783 -0.939737 7.75788
O -4.30725 -1.77567 6.07912
O -4.24121 -2.45411 4.20447
O -3.49024 -2.93371 2.39882
O -2.25906 -3.23781 0.799383
O -0.768595 -3.40781 -0.604064
O 0.813255 -3.41631 -1.89804
O 2.37392 -3.15557 -3.15234
O 3.80687 -2.48661 -4.36531
O 4.98052 -1.32223 -5.45217
O 5.78022 0.270229 -6.30393
O 6.14512 2.1404 -6.81682
O 6.05926 4.10787 -6.92085
O 5.55307 5.98549 -6.59495
O 4.69301 7.59849 -5.85539
O 3.57263 8.79316 -4.75628
O 2.3111 9.44937 -3.38865
O 1.0452 9.49122 -1.87448
O -0.0739187 8.89981 -0.356958
O -0.897286 7.73463 1.01622
O -1.30449 6.13989 2.13128
O -1.27354 4.30134 2.94008
O -0.893135 2.37462 3.48776
O -0.318474 0.427114 3.86559
O 0.244922 -1.54803 4.1204
O 0.596015 -3.56386 4.18238
O 0.59575 -5.56212 3.91818
O 0.178431 -7.38391 3.22824
O -0.613944 -8.82175 2.11617
O -1.64784 -9.70987 0.682438
O -2.77174 -9.95702 -0.922878
O -3.83615 -9.54826 -2.53353
O -4.70626 -8.5365 -3.98562
O -5.27159 -7.04057 -5.13858
O -5.45601 -5.22707 -5.88955
O -5.22073 -3.29129 -6.18472
O -4.56699 -1.43665 -6.01896
O -3.53984 0.146444 -5.43257
O -2.23925 1.32005 -4.49696
O -0.798491 2.09447 -3.32874
O 0.676201 2.5921 -2.01832
O 2.08343 2.93292 -0.570585
O 3.28624 3.17628 1.05731
50
Atoms. Timestep: 1100
O 4.07279 3.34131 2.90581
O 4.27349 3.28681 4.88703
O 3.77066 3.01667 6.78824
O 2.63959 2.51484 8.33665
O 1.06456 1.7961 9.29879
O -0.695603 0.917537 9.52736
O -2.34653 -0.0400261 8.99402
O -3.60626 -0.984048 7.78666
O -4.25776 -1.8241 6.10684
O -4.18758 -2.49865 4.22996
O -3.4353 -2.97147 2.42099
O -2.20261 -3.26927 0.819376
O -0.709256 -3.43663 -0.58215
O 0.873597 -3.44577 -1.87347
O 2.42984 -3.18683 -3.13025
O 3.85294 -2.5158 -4.35041
O 5.01512 -1.34794 -5.44364
O 5.80716 0.248662 -6.29299
O 6.16814 2.12156 -6.79787
O 6.08368 4.08936 -6.89974
O 5.57616 5.96747 -6.57922
O 4.70891 7.58153 -5.8515
O 3.57764 8.77862 -4.76746
O 2.30121 9.43515 -3.41467
O 1.02131 9.47355 -1.91252
O -0.107886 8.88073 -0.402909
O -0.936684 7.71884 0.970006
O -1.34664 6.13079 2.09323
O -1.31743 4.29807 2.91332
O -0.935325 2.3756 3.46705
O -0.353974 0.432847 3.84523
O 0.218603 -1.53803 4.09754
O 0.577332 -3.55218 4.15443
O 0.583859 -5.55011 3.88492
O 0.171871 -7.37422 3.19623
O -0.622434 -8.81499 2.08933
O -1.6672 -9.70249 0.663438
O -2.80585 -9.94268 -0.931774
O -3.88075 -9.52292 -2.5318
O -4.75207 -8.50348 -3.97686
O -5.30793 -7.00377 -5.12864
O -5.47761 -5.19059 -5.88301
O -5.23016 -3.25723 -6.18311
O -4.57223 -1.40369 -6.02236
O -3.54714 0.18045 -5.43677
O -2.25088 1.35315 -4.49632
O -0.813869 2.12727 -3.32494
O 0.657855 2.62652 -2.01274
O 2.06315 2.96956 -0.563939
O 3.2644 3.21475 1.06508
50
Atoms. Timestep: 1200
O 4.05944 3.37915 2.91318
O 4.26233 3.32248 4.89294
O 3.76556 3.04639 6.79397
O 2.64393 2.53358 8.34458
O 1.0794 1.79963 9.31117
O -0.669986 0.902163 9.54555
O -2.3117 -0.0732719 9.0172
O -3.56479 -1.02942 7.81296
O -4.21148 -1.87473 6.13391
O -4.13918 -2.54784 4.25636
O -3.38642 -3.01427 2.44559
O -2.15422 -3.30337 0.841435
O -0.662894 -3.46495 -0.563168
O 0.916692 -3.47263 -1.85775
O 2.46939 -3.21443 -3.11872
O 3.88849 -2.54214 -4.34233
O 5.04557 -1.36876 -5.43464
O 5.83096 0.232714 -6.28067
O 6.18538 2.10758 -6.7832
O 6.09688 4.07537 -6.88649
O 5.58648 5.95395 -6.5713
O 4.71666 7.56986 -5.84951
O 3.57902 8.769 -4.77341
O 2.2929 9.4282 -3.43014
O 1.00218 9.47036 -1.93643
O -0.138007 8.87967 -0.433244
O -0.974542 7.7198 0.937515
O -1.38971 6.13146 2.05909
O -1.3622 4.298 2.87844
O -0.976336 2.37654 3.43472
O -0.387035 0.436031 3.81718
O 0.194134 -1.53361 4.07557
O 0.558397 -3.54858 4.13907
O 0.565078 -5.54808 3.8727
O 0.149656 -7.37227 3.18386
O -0.648856 -8.81216 2.07758
O -1.69832 -9.6976 0.653395
O -2.84044 -9.9331 -0.94014
O -3.91556 -9.50509 -2.53777
O -4.78308 -8.47721 -3.97923
O -5.33389 -6.9719 -5.12611
O -5.49664 -5.15707 -5.87734
O -5.23951 -3.22564 -6.179
O -4.57221 -1.37592 -6.02244
O -3.53997 0.204246 -5.44172
O -2.24267 1.37532 -4.50133
O -0.808904 2.15017 -3.32692
O 0.657142 2.65223 -2.00988
O 2.05686 3.00067 -0.557819
O 3.25272 3.25051 1.07312
50
Atoms. Timestep: 1300
O 4.05477 3.41303 2.91937
O 4.25755 3.35579 4.8985
O 3.76498 3.07346 6.79898
O 2.65161 2.54926 8.351
O 1.09773 1.80005 9.32197
O -0.641529 0.885942 9.56144
O -2.2746 -0.104207 9.03619
O -3.5217 -1.06898 7.83324
O -4.16526 -1.91633 6.15383
O -4.0934 -2.58888 4.27518
O -3.34399 -3.05453 2.46153
O -2.1138 -3.34199 0.854221
O -0.62229 -3.49898 -0.551
O 0.957952 -3.5005 -1.84409
O 2.51096 -3.23453 -3.10215
O 3.92809 -2.55572 -4.32419
O 5.0802 -1.37948 -5.41886
O 5.85894 0.223912 -6.26794
O 6.20558 2.09967 -6.77335
O 6.1079 4.06713 -6.87965
O 5.58967 5.94417 -6.56692
O 4.71263 7.55833 -5.84922
O 3.57014 8.75875 -4.77927
O 2.2802 9.4226 -3.44176
O 0.984937 9.46896 -1.95213
O -0.161032 8.87999 -0.45281
O -1.00737 7.72083 0.912281
O -1.43237 6.13255 2.02978
O -1.40785 4.29958 2.84837
O -1.01828 2.37993 3.40465
O -0.42149 0.44311 3.78875
O 0.167485 -1.5237 4.05142
O 0.536242 -3.53879 4.12276
O 0.540924 -5.54073 3.86347
O 0.119964 -7.3666 3.17991
O -0.683907 -8.80528 2.07505
O -1.73528 -9.68766 0.649719
O -2.87581 -9.91952 -0.946126
O -3.94784 -9.48925 -2.5457
O -4.81199 -8.45682 -3.98606
O -5.35841 -6.94792 -5.1305
O -5.51522 -5.13159 -5.87956
O -5.25137 -3.20083 -6.17985
O -4.57574 -1.35402 -6.02205
O -3.53582 0.220963 -5.44027
O -2.23343 1.38679 -4.50016
O -0.798638 2.15957 -3.32572
O 0.665001 2.66454 -2.00753
O 2.06002 3.02023 -0.553288
O 3.25145 3.27878 1.07884
50
Atoms. Timestep: 1400
O 4.05513 3.43732 2.92637
O 4.25826 3.3823 4.90469
O 3.77064 3.09577 6.80531
O 2.66548 2.56081 8.35884
O 1.1197 1.79777 9.33101
O -0.611452 0.868873 9.57116
O -2.23793 -0.133101 9.04754
O -3.48158 -1.10536 7.84671
O -4.12366 -1.95591 6.16805
O -4.05089 -2.62673 4.28824
O -3.30068 -3.08666 2.47241
O -2.06886 -3.36837 0.86387
O -0.574985 -3.52264 -0.53993
O 1.00654 -3.52443 -1.83068
O 2.55958 -3.25765 -3.08725
O 3.97263 -2.5734 -4.30982
O 5.11548 -1.38878 -5.40413
O 5.88238 0.219834 -6.25335
O 6.22048 2.09632 -6.76121
O 6.11636 4.06303 -6.87275
O 5.59173 5.93935 -6.56686
O 4.70854 7.5524 -5.85449
O 3.56042 8.75107 -4.78872
O 2.26501 9.41367 -3.45607
O 0.963853 9.46122 -1.97174
O -0.190117 8.87583 -0.477252
O -1.04455 7.72057 0.885662
O -1.47492 6.13503 2.00422
O -1.45279 4.30467 2.82713
O -1.06197 2.38785 3.38842
O -0.460699 0.453879 3.77614
O 0.134868 -1.51104 4.03996
O 0.508122 -3.52646 4.11051
O 0.512832 -5.52956 3.85075
O 0.0896027 -7.35663 3.16908
O -0.71724 -8.79714 2.06773
O -1.77304 -9.67809 0.644426
O -2.91611 -9.90714 -0.949999
O -3.98692 -9.47354 -2.54936
O -4.84581 -8.43868 -3.99087
O -5.38452 -6.92736 -5.13557
O -5.53206 -5.10969 -5.88313
O -5.25733 -3.18008 -6.18032
O -4.57191 -1.33721 -6.02199
O -3.52628 0.23338 -5.43979
O -2.22311 1.39501 -4.49623
O -0.790097 2.16631 -3.31906
O 0.670984 2.67297 -1.99928
O 2.06367 3.03338 -0.544888
O 3.25342 3.29796 1.0866
50
Atoms. Timestep: 1500
O 4.05783 3.45462 2.93273
O 4.26411 3.39667 4.91014
O 3.78159 3.10527 6.81067
O 2.68207 2.56249 8.36487
O 1.14285 1.78895 9.33833
O -0.582097 0.850251 9.58244
O -2.20436 -0.159315 9.06127
O -3.44492 -1.13473 7.85996
O -4.08337 -1.98564 6.17937
O -4.00855 -2.65527 4.298
O -3.25667 -3.11452 2.48148
O -2.02177 -3.39486 0.873733
O -0.524279 -3.54789 -0.526792
O 1.05893 -3.54717 -1.8147
O 2.60996 -3.27447 -3.07113
O 4.01604 -2.58318 -4.2967
O 5.15124 -1.39407 -5.39392
O 5.91017 0.216793 -6.24602
O 6.23905 2.09442 -6.75604
O 6.12502 4.06065 -6.86896
O 5.59273 5.93563 -6.56615
O 4.702 7.54743 -5.85959
O 3.54751 8.74585 -4.80001
O 2.24589 9.40855 -3.47296
O 0.937756 9.45561 -1.99426
O -0.222935 8.8714 -0.503754
O -1.08416 7.72069 0.859766
O -1.52114 6.14035 1.98367
O -1.5021 4.31258 2.81218
O -1.10977 2.39717 3.37687
O -0.50398 0.464725 3.76543
O 0.0973678 -1.4994 4.03025
O 0.474152 -3.51596 4.10304
O 0.479916 -5.52105 3.84549
O 0.0569263 -7.34976 3.1645
O -0.749989 -8.79088 2.06276
O -1.80804 -9.66941 0.639429
O -2.95391 -9.89397 -0.953759
O -4.02617 -9.45602 -2.55092
O -4.88211 -8.41778 -3.99144
O -5.41201 -6.90529 -5.13797
O -5.54586 -5.08848 -5.88866
O -5.25952 -3.16134 -6.18603
O -4.56613 -1.32269 -6.02375
O -3.51557 0.241292 -5.43573
O -2.20981 1.39833 -4.491
O -0.776616 2.17082 -3.31547
O 0.682132 2.68197 -1.99546
O 2.07042 3.04685 -0.538787
O 3.25677 3.31481 1.09354
50
Atoms. Timestep: 1600
O 4.06809 3.46632 2.93811
O 4.2768 3.40437 4.9145
O 3.79802 3.10659 6.81441
O 2.70292 2.55687 8.36884
O 1.16774 1.77777 9.3434
O -0.553516 0.83326 9.58858
O -2.17219 -0.182732 9.06987
O -3.40972 -1.16369 7.86987
O -4.04533 -2.01726 6.18921
O -3.96756 -2.68539 4.30666
O -3.21209 -3.14045 2.48895
O -1.97366 -3.41839 0.881626
O -0.474097 -3.57039 -0.517327
O 1.10936 -3.56842 -1.80395
O 2.65865 -3.29179 -3.0602
O 4.05958 -2.5918 -4.28534
O 5.18632 -1.39523 -5.38277
O 5.93641 0.219057 -6.23625
O 6.2573 2.09764 -6.74793
O 6.13685 4.06339 -6.86353
O 5.59629 5.93656 -6.56425
O 4.69561 7.54493 -5.86227
O 3.53106 8.73964 -4.80914
O 2.22198 9.40149 -3.48874
O 0.908499 9.45157 -2.01474
O -0.256881 8.87194 -0.526155
O -1.12313 7.72491 0.836839
O -1.56628 6.14714 1.96115
O -1.55167 4.32118 2.79138
O -1.16001 2.4076 3.35766
O -0.551063 0.477703 3.7477
O 0.0562788 -1.48442 4.01372
O 0.437724 -3.50118 4.09136
O 0.444056 -5.5083 3.84132
O 0.0193532 -7.33926 3.1655
O -0.789887 -8.78093 2.066
O -1.84924 -9.65868 0.643148
O -2.99374 -9.88214 -0.95108
O -4.06115 -9.4427 -2.55087
O -4.91017 -8.40245 -3.99377
O -5.43175 -6.88804 -5.14115
O -5.55776 -5.07037 -5.89039
O -5.26323 -3.1444 -6.1854
O -4.56295 -1.30889 -6.0208
O -3.50656 0.250146 -5.43074
O -2.19751 1.40175 -4.48439
O -0.763475 2.17209 -3.30861
O 0.694534 2.6842 -1.98829
O 2.08153 3.05398 -0.532067
O 3.26637 3.3262 1.09989
50
Atoms. Timestep: 1700
O 4.07902 3.47035 2.94424
O 4.2908 3.40608 4.91953
O 3.81665 3.10451 6.81929
O 2.72563 2.54922 8.37373
O 1.19474 1.76376 9.34904
O -0.522309 0.812782 9.59668
O -2.13664 -0.21007 9.07854
O -3.36983 -1.19597 7.87786
O -4.00416 -2.05118 6.19687
O -3.92671 -2.71813 4.3129
O -3.17055 -3.1706 2.4934
O -1.92903 -3.44502 0.886131
O -0.425793 -3.59397 -0.509913
O 1.16 -3.58725 -1.79272
O 2.70928 -3.30355 -3.04629
O 4.10744 -2.59781 -4.27091
O 5.22759 -1.39628 -5.36943
O 5.96822 0.222042 -6.22362
O 6.27774 2.1022 -6.73707
O 6.14579 4.06715 -6.85615
O 5.59554 5.93851 -6.5623
O 4.68655 7.54506 -5.86643
O 3.51483 8.73839 -4.8192
O 2.19887 9.40017 -3.50511
O 0.87807 9.45203 -2.03737
O -0.295138 8.87539 -0.553531
O -1.16856 7.73187 0.807864
O -1.61624 6.15687 1.93397
O -1.60275 4.33309 2.76802
O -1.20965 2.42203 3.33863
O -0.597903 0.494073 3.73029
O 0.01419 -1.46711 3.99819
O 0.39935 -3.48488 4.08099
O 0.406244 -5.49448 3.8368
O -0.0208143 -7.32803 3.16628
O -0.833431 -8.77205 2.07137
O -1.89408 -9.65084 0.649889
O -3.03651 -9.8736 -0.945833
O -4.09869 -9.43155 -2.54826
O -4.93998 -8.38791 -3.99304
O -5.45344 -6.87099 -5.14052
O -5.57081 -5.05204 -5.88777
O -5.26753 -3.12726 -6.18087
O -4.55872 -1.29512 -6.01612
O -3.4948 0.259142 -5.42703
O -2.18128 1.40694 -4.48171
O -0.745978 2.17593 -3.3063
O 0.710297 2.68857 -1.98439
O 2.0942 3.05911 -0.525799
O 3.27704 3.33125 1.10686
50
Atoms. Timestep: 1800
O 4.08945 3.47869 2.94892
O 4.30489 3.41057 4.9228
O 3.83544 3.10087 6.82175
O 2.74995 2.53636 8.37617
O 1.22581 1.74086 9.35331
O -0.486149 0.781689 9.60246
O -2.09739 -0.246542 9.08598
O -3.32918 -1.2353 7.88608
O -3.96296 -2.08945 6.20399
O -3.88474 -2.75214 4.31777
O -3.12619 -3.19926 2.49655
O -1.87999 -3.46973 0.890818
O -0.372904 -3.61683 -0.501227
O 1.21467 -3.60658 -1.78016
O 2.76241 -3.317 -3.03247
O 4.15638 -2.60323 -4.25648
O 5.26988 -1.39403 -5.35372
O 6.001 0.227723 -6.20995
O 6.29985 2.10855 -6.72818
O 6.15631 4.07252 -6.85152
O 5.59474 5.94122 -6.56105
O 4.67624 7.54443 -5.86929
O 3.49725 8.73641 -4.8281
O 2.17398 9.40002 -3.52183
O 0.844439 9.45438 -2.06196
O -0.334993 8.88129 -0.581614
O -1.21186 7.74288 0.781803
O -1.66458 6.17087 1.90938
O -1.65453 4.34879 2.74549
O -1.26338 2.43953 3.31957
O -0.650937 0.513495 3.71439
O -0.0347618 -1.4462 3.9861
O 0.35432 -3.46457 4.07415
O 0.362134 -5.47637 3.83601
O -0.0651152 -7.31268 3.17056
O -0.877961 -8.7596 2.07899
O -1.93862 -9.64093 0.658964
O -3.07944 -9.86227 -0.937855
O -4.13669 -9.4152 -2.54167
O -4.97275 -8.36832 -3.98685
O -5.48024 -6.85052 -5.13485
O -5.58784 -5.03283 -5.8852
O -5.27193 -3.11132 -6.18239
O -4.55081 -1.28451 -6.02089
O -3.47754 0.262334 -5.4313
O -2.16107 1.404 -4.48258
O -0.727276 2.17154 -3.30421
O 0.725632 2.68684 -1.97972
O 2.10641 3.06213 -0.519867
O 3.28719 3.33839 1.11267
50
Atoms. Timestep: 1900
O 4.09783 3.48231 2.95173
O 4.31749 3.41112 4.92432
O 3.85449 3.09415 6.82304
O 2.77598 2.51975 8.37794
O 1.25869 1.71302 9.35578
O -0.446748 0.743334 9.60792
O -2.05438 -0.292075 9.09484
O -3.28579 -1.28223 7.89567
O -3.92022 -2.13301 6.21176
O -3.84144 -2.78911 4.32232
O -3.08033 -3.23034 2.49913
O -1.82947 -3.49813 0.894602
O -0.318717 -3.64455 -0.494208
O 1.27007 -3.63276 -1.7708
O 2.81631 -3.33725 -3.02215
O 4.20476 -2.61288 -4.24525
O 5.3089 -1.39391 -5.34117
O 6.02948 0.233071 -6.19671
O 6.31796 2.11525 -6.71594
O 6.16446 4.07833 -6.84423
O 5.59297 5.9451 -6.56014
O 4.66539 7.546 -5.87486
O 3.47941 8.73618 -4.83963
O 2.15151 9.40078 -3.53869
O 0.817694 9.45856 -2.08285
O -0.367668 8.89062 -0.605356
O -1.25283 7.75796 0.757308
O -1.71524 6.19169 1.88809
O -1.71345 4.37355 2.73033
O -1.32552 2.46635 3.30818
O -0.710992 0.542071 3.70284
O -0.0884259 -1.41616 3.97385
O 0.306791 -3.43504 4.06736
O 0.316519 -5.44989 3.8393
O -0.11107 -7.29084 3.18375
O -0.923832 -8.74196 2.09696
O -1.98216 -9.62288 0.674942
O -3.11822 -9.84189 -0.92553
O -4.16894 -9.39276 -2.53306
O -4.99915 -8.34614 -3.98169
O -5.50225 -6.83082 -5.13491
O -5.60422 -5.01542 -5.89061
O -5.27922 -3.09645 -6.1918
O -4.54532 -1.2751 -6.03128
O -3.46069 0.262502 -5.43939
O -2.13957 1.39623 -4.48766
O -0.707327 2.16204 -3.30641
O 0.74125 2.68049 -1.97866
O 2.11685 3.06082 -0.515933
O 3.29487 3.34137 1.11676
50
Atoms. Timestep: 2000
O 4.10816 3.47585 2.95484
O 4.3337 3.4011 4.92602
O 3.87732 3.07757 6.82443
O 2.8047 2.495 8.37978
O 1.2934 1.6802 9.35926
O -0.405598 0.700036 9.6134
O -2.00876 -0.343197 9.10184
O -3.23883 -1.33595 7.90312
O -3.87414 -2.18462 6.21777
O -3.79531 -2.83594 4.32548
O -3.03136 -3.27081 2.50008
O -1.7758 -3.53347 0.896637
O -0.260983 -3.67809 -0.488078
O 1.3282 -3.66511 -1.7625
O 2.87088 -3.36395 -3.01493
O 4.252 -2.62832 -4.23822
O 5.34692 -1.3979 -5.33085
O 6.05682 0.235217 -6.18441
O 6.33351 2.11911 -6.70534
O 6.16919 4.08139 -6.8385
O 5.58972 5.9469 -6.56006
O 4.656 7.54683 -5.88031
O 3.46364 8.73691 -4.85171
O 2.12922 9.40267 -3.55772
O 0.78939 9.46453 -2.10724
O -0.402682 8.90493 -0.631762
O -1.29699 7.78187 0.732819
O -1.77135 6.22252 1.86737
O -1.7805 4.40805 2.71432
O -1.3986 2.50252 3.29543
O -0.783717 0.58042 3.69181
O -0.153816 -1.3751 3.96701
O 0.251529 -3.3937 4.06802
O 0.268399 -5.4115 3.84706
O -0.155628 -7.25573 3.19504
O -0.968013 -8.71091 2.11215
O -2.02554 -9.59711 0.692528
O -3.15796 -9.81858 -0.910104
O -4.20248 -9.37111 -2.52193
O -5.02435 -8.32666 -3.97662
O -5.51778 -6.81249 -5.13505
O -5.60988 -4.99877 -5.89524
O -5.27568 -3.08219 -6.19809
O -4.53521 -1.26418 -6.03727
O -3.44521 0.267938 -5.44366
O -2.12088 1.39516 -4.48983
O -0.68878 2.15851 -3.30753
O 0.757041 2.67734 -1.978
O 2.12857 3.05716 -0.51265
O 3.30371 3.33694 1.12112
50
Atoms. Timestep: 2100
O 4.12384 3.46614 2.95997
O 4.35469 3.38399 4.92949
O 3.90527 3.05234 6.82753
O 2.83954 2.4612 8.38363
O 1.33469 1.63738 9.36472
O -0.359163 0.649526 9.62108
O -1.95935 -0.399037 9.11146
O -3.18937 -1.39388 7.91417
O -3.82592 -2.23988 6.22734
O -3.74684 -2.88485 4.33151
O -2.97971 -3.31238 2.50316
O -1.71815 -3.56947 0.90074