50
Atoms. Timestep: 0
O 4.94658 8.08817 4.14912
O 3.37701 8.17304 5.21942
O 1.63871 7.5015 5.60858
O 0.16716 6.35272 5.2164
O -0.800688 5.08003 4.16842
O -1.2443 3.95014 2.68527
O -1.28432 2.99633 1.01877
O -1.07813 2.12693 -0.683499
O -0.777541 1.21379 -2.34868
O -0.530735 0.124354 -3.91194
O -0.498068 -1.24637 -5.25293
O -0.845654 -2.90147 -6.14429
O -1.67048 -4.61194 -6.27168
O -2.85199 -5.86603 -5.47455
O -4.05303 -6.24636 -4.04658
O -5.02102 -5.79104 -2.46179
O -5.71978 -4.75128 -1.01041
O -6.14789 -3.34597 0.223886
O -6.26627 -1.71679 1.23195
O -6.04522 0.0174049 2.02502
O -5.45768 1.74489 2.62076
O -4.48231 3.34434 3.03538
O -3.11969 4.67087 3.28068
O -1.4214 5.55292 3.36649
O 0.47271 5.82079 3.30335
O 2.33008 5.4413 3.0389
O 3.91427 4.5148 2.4949
O 5.02671 3.21697 1.63412
O 5.52352 1.78071 0.472113
O 5.37908 0.410634 -0.858575
O 4.68872 -0.799209 -2.17629
O 3.57525 -1.82778 -3.35293
O 2.1516 -2.69812 -4.30221
O 0.513477 -3.45366 -4.95965
O -1.25176 -4.14283 -5.26739
O -3.04694 -4.81132 -5.16058
O -4.71978 -5.43477 -4.47396
O -5.9551 -5.82342 -3.07848
O -6.31213 -5.75839 -1.21686
O -5.66993 -5.207 0.485649
O -4.35414 -4.35048 1.57198
O -2.75915 -3.37324 1.98566
O -1.13157 -2.35939 1.88958
O 0.427397 -1.30773 1.49228
O 1.89346 -0.17161 0.986232
O 3.26003 1.10783 0.552039
O 4.49538 2.56672 0.37908
O 5.50336 4.17069 0.66337
O 6.06036 5.80091 1.4905
O 5.90759 7.21758 2.75682
50
Atoms. Timestep: 20
O 5.07613 8.27723 4.23741
O 3.46008 8.36543 5.3705
O 1.65396 7.70074 5.8571
O 0.0638275 6.45616 5.61415
O -0.820074 4.83726 4.61075
O -1.21135 3.77698 2.78512
O -1.39177 3.03435 0.890732
O -1.22187 2.2457 -0.869047
O -0.88263 1.3904 -2.52739
O -0.587158 0.343966 -4.08926
O -0.569862 -1.00902 -5.50499
O -0.932833 -2.7087 -6.61432
O -1.6306 -4.7577 -6.86338
O -2.68184 -6.37443 -5.80037
O -3.7836 -6.79657 -4.01079
O -4.6605 -5.91179 -2.29427
O -5.65728 -4.42541 -1.13225
O -6.43295 -3.13628 0.187045
O -6.50302 -1.58622 1.31765
O -6.23526 0.108813 2.10293
O -5.66619 1.79955 2.69224
O -4.74146 3.41521 3.11982
O -3.44468 4.89544 3.35634
O -1.71403 6.00894 3.17341
O 0.379491 6.06245 3.06412
O 2.34333 5.51264 3.03686
O 3.99101 4.43572 2.6424
O 5.29545 2.95533 1.99709
O 6.00985 1.55406 0.607595
O 5.708 0.273923 -0.964005
O 4.91554 -0.916566 -2.29615
O 3.79478 -1.92258 -3.44467
O 2.41115 -2.81291 -4.37499
O 0.795189 -3.69053 -4.93589
O -1.12855 -4.23188 -4.943
O -3.23767 -4.45913 -5.11616
O -5.19609 -5.20343 -4.77435
O -6.5377 -5.93659 -3.27284
O -6.74072 -6.17235 -1.08684
O -5.74776 -5.60699 0.78217
O -4.28733 -4.55737 1.83673
O -2.66997 -3.50341 2.22653
O -1.04598 -2.5008 2.11118
O 0.507525 -1.51416 1.6641
O 1.94044 -0.369787 1.12216
O 3.21885 1.05484 0.589912
O 4.3694 2.75862 0.0558622
O 5.71359 4.39332 0.285576
O 6.35088 6.01153 1.38565
O 6.10501 7.42424 2.78166
50
Atoms. Timestep: 40
O 5.29833 8.59289 4.37524
O 3.56174 8.66998 5.6364
O 1.61926 7.94423 6.29688
O 0.100774 6.37686 6.26684
O -0.747306 4.66463 5.17005
O -1.17133 3.58092 3.2043
O -1.51423 3.1894 0.964892
O -1.5878 2.65388 -1.13667
O -1.13545 1.82818 -3.00997
O -0.767063 0.699821 -4.72792
O -0.862323 -0.750962 -6.29185
O -1.21348 -2.67378 -7.39262
O -1.72445 -4.93991 -7.44132
O -2.3725 -6.82653 -6.20785
O -3.15604 -7.30121 -4.09191
O -4.17231 -6.02205 -2.37544
O -5.46443 -4.2512 -1.31133
O -6.74282 -2.81384 -0.157125
O -7.14172 -1.48441 1.35192
O -6.76415 0.275653 2.30283
O -6.12404 2.10843 2.9346
O -5.16351 3.87259 3.38226
O -3.93241 5.52862 3.29908
O -2.14248 6.54715 2.87111
O 0.0614151 6.54113 2.66242
O 2.22402 5.54049 2.84018
O 4.17584 4.0579 3.01924
O 5.78077 2.49803 2.40138
O 6.63336 1.15695 0.930932
O 6.52142 0.0891308 -0.874729
O 5.60498 -1.02475 -2.41141
O 4.36712 -2.14778 -3.66815
O 2.88922 -3.24796 -4.63087
O 1.04114 -4.21217 -4.72848
O -1.20167 -4.28951 -4.65525
O -3.6226 -4.22092 -4.94081
O -5.91828 -4.84427 -4.80611
O -7.21609 -6.01235 -3.29427
O -7.08114 -6.6258 -1.03516
O -5.93696 -6.31497 0.976912
O -4.34346 -5.26215 2.21213
O -2.67884 -4.00938 2.74247
O -0.904864 -2.9327 2.6556
O 0.808527 -1.93154 2.08748
O 2.24216 -0.564567 1.38428
O 3.21752 1.24075 0.471788
O 4.41127 3.08214 -0.30205
O 5.81853 4.83776 -0.180978
O 6.71259 6.38614 1.06449
O 6.44996 7.73289 2.76517
50
Atoms. Timestep: 60
O 5.38639 8.70639 4.41618
O 3.59385 8.77671 5.77991
O 1.84517 7.85062 6.65678
O 0.457576 6.25334 6.60072
O -0.536149 4.70372 5.46387
O -1.18676 3.65745 3.49739
O -1.56166 3.20256 1.13434
O -1.69173 3.01697 -1.30113
O -1.52708 2.28559 -3.53988
O -1.25024 1.05573 -5.51097
O -1.26574 -0.654776 -7.10651
O -1.54982 -2.82014 -7.85676
O -1.85019 -5.02289 -7.57825
O -2.09636 -6.66393 -6.30151
O -2.74143 -6.94029 -4.40193
O -3.88835 -5.98595 -2.74167
O -5.22536 -4.40255 -1.48301
O -6.59803 -2.71256 -0.373916
O -7.58318 -1.13551 1.03827
O -7.42078 0.508306 2.46516
O -6.62958 2.43083 3.2255
O -5.72172 4.41553 3.44309
O -4.32329 6.05223 3.08677
O -2.31346 6.88424 2.60552
O 0.0196172 6.54635 2.40326
O 2.11714 5.30532 2.69455
O 4.05373 3.80444 3.01812
O 5.8857 2.2812 2.66109
O 7.02383 0.851659 1.23386
O 7.15412 -0.280063 -0.685539
O 6.36377 -1.25571 -2.51843
O 5.03241 -2.45008 -3.89221
O 3.30545 -3.78614 -4.4544
O 0.980826 -4.30323 -4.51379
O -1.48619 -4.27367 -4.64297
O -3.93923 -4.33974 -4.67249
O -6.09232 -4.84235 -4.20065
O -7.31137 -5.87623 -2.94572
O -7.09172 -6.73833 -1.06703
O -6.01982 -6.7932 0.881148
O -4.475 -6.05608 2.40718
O -2.64834 -4.80735 3.14401
O -0.714983 -3.54057 3.14502
O 1.08467 -2.21964 2.6027
O 2.32628 -0.497941 1.50933
O 3.38615 1.37524 0.34958
O 4.55819 3.34041 -0.355973
O 5.75036 5.23854 -0.244459
O 6.59028 6.85579 0.859797
O 6.54927 7.99105 2.66222
50
Atoms. Timestep: 80
O 5.24946 8.70827 4.35572
O 3.85781 8.53989 5.80763
O 2.31653 7.61095 6.74071
O 0.853925 6.14373 6.62525
O -0.355035 4.77938 5.40301
O -1.17487 3.83961 3.40707
O -1.52921 3.31792 1.03733
O -1.64501 2.9432 -1.42596
O -1.82479 2.48124 -3.85992
O -1.89103 1.30602 -5.98883
O -1.77511 -0.56964 -7.41174
O -1.78854 -2.67892 -8.00134
O -1.79796 -4.71683 -7.75844
O -1.96317 -6.21537 -6.43279
O -2.7293 -6.4895 -4.56161
O -3.79887 -5.66288 -2.86268
O -5.05182 -4.25107 -1.51102
O -6.31334 -2.62848 -0.35624
O -7.31823 -0.845532 0.774017
O -7.78331 0.899418 2.2078
O -7.25604 2.73998 3.25566
O -6.15174 4.71703 3.2107
O -4.46056 6.26949 2.83119
O -2.25622 6.74822 2.43933
O -0.0433899 6.14642 2.40234
O 1.99341 5.00572 2.59715
O 3.89092 3.64316 2.74308
O 5.64597 2.14765 2.46306
O 6.98414 0.703487 1.36926
O 7.37376 -0.621073 -0.517419
O 6.85238 -1.7342 -2.48689
O 5.45278 -2.98178 -3.67819
O 3.27153 -3.76208 -4.0491
O 0.940462 -4.07321 -4.37774
O -1.43923 -4.17693 -4.48813
O -3.78844 -4.40124 -4.37431
O -5.85086 -4.96761 -3.80261
O -7.14241 -5.86161 -2.47638
O -7.00028 -6.78471 -0.709899
O -5.86023 -6.99372 0.965969
O -4.32439 -6.53271 2.38566
O -2.42533 -5.56002 3.23967
O -0.52405 -4.08675 3.3621
O 0.961136 -2.2466 2.72827
O 2.27375 -0.488061 1.61214
O 3.48197 1.33887 0.495356
O 4.60792 3.3682 -0.17737
O 5.58448 5.42955 -0.0822388
O 6.23043 7.18893 0.912777
O 6.17514 8.30794 2.61213
50
Atoms. Timestep: 100
O 5.15595 8.84343 4.32095
O 4.14056 8.25635 5.93251
O 2.63114 7.21495 6.7096
O 1.06192 5.97996 6.38225
O -0.251741 4.83716 5.08141
O -1.05968 3.9394 3.00308
O -1.45576 3.36078 0.635865
O -1.74741 2.87345 -1.69039
O -2.00954 2.27664 -3.88379
O -2.28051 1.36829 -5.83343
O -2.31071 -0.140091 -7.25437
O -1.94268 -2.12863 -8.09821
O -1.71661 -4.21778 -7.95489
O -2.09587 -5.77651 -6.62871
O -2.84982 -6.18344 -4.63974
O -3.7816 -5.2907 -2.69484
O -4.92157 -3.74149 -1.33633
O -6.05851 -2.20758 -0.271558
O -6.9263 -0.613886 0.815462
O -7.58378 1.18458 1.77024
O -7.60953 3.16048 2.60832
O -6.30556 4.86002 2.90901
O -4.5005 5.94353 2.61492
O -2.39608 6.27456 2.45802
O -0.208633 5.82918 2.38134
O 1.84588 4.73263 2.45939
O 3.76445 3.3997 2.52179
O 5.48573 1.97329 2.08274
O 6.65136 0.480822 1.03466
O 7.24718 -0.873565 -0.4848
O 6.88766 -2.33556 -1.98095
O 5.28035 -3.23229 -3.08988
O 3.27032 -3.52998 -3.8096
O 1.15667 -3.78057 -4.05944
O -1.03734 -3.97068 -4.14776
O -3.38722 -4.2651 -4.17046
O -5.53778 -5.09304 -3.62606
O -6.82807 -6.06778 -2.15932
O -6.84764 -6.84018 -0.22663
O -5.57027 -7.12063 1.39499
O -3.72782 -6.74551 2.46681
O -1.95869 -5.80438 3.1046
O -0.521609 -4.22275 3.129
O 0.769982 -2.46196 2.58628
O 2.07131 -0.665997 1.77219
O 3.33275 1.19696 0.808083
O 4.49109 3.23524 0.104171
O 5.37123 5.33572 0.148726
O 5.81201 7.21014 0.950985
O 5.7385 8.53299 2.45038
50
Atoms. Timestep: 120
O 5.1439 8.94249 4.3325
O 4.27092 8.12576 6.02453
O 2.76285 6.84566 6.64436
O 1.03916 5.74934 6.0434
O -0.209798 4.73195 4.53083
O -0.944145 3.85488 2.50644
O -1.44536 3.35428 0.273064
O -1.8348 2.90214 -1.82107
O -2.17133 2.25023 -3.67978
O -2.48231 1.38463 -5.48689
O -2.52553 0.199963 -7.14016
O -2.13658 -1.54698 -8.05952
O -1.9562 -3.58705 -7.95238
O -2.37046 -5.24919 -6.71987
O -3.01729 -5.75112 -4.68481
O -3.7491 -4.8937 -2.61745
O -4.77074 -3.32129 -1.2366
O -5.80446 -1.76071 -0.139311
O -6.74935 -0.246803 0.855456
O -7.33415 1.50421 1.44967
O -7.36354 3.34624 1.79522
O -6.43451 4.8611 2.41236
O -4.58572 5.50502 2.6166
O -2.53968 5.88177 2.42481
O -0.351452 5.57387 2.27855
O 1.7137 4.49686 2.32587
O 3.6284 3.1695 2.36037
O 5.31816 1.74195 1.81863
O 6.4513 0.34655 0.642003
O 6.99511 -1.23746 -0.410483
O 6.41446 -2.70276 -1.44572
O 5.04377 -3.25915 -2.61301
O 3.39808 -3.47358 -3.46479
O 1.4135 -3.5827 -3.75875
O -0.736585 -3.76123 -3.84667
O -3.02606 -4.18018 -3.90084
O -5.10463 -5.20199 -3.38149
O -6.3183 -6.30379 -1.90087
O -6.36192 -6.95121 0.118019
O -5.12998 -7.1658 1.7867
O -3.28687 -6.87878 2.63338
O -1.63243 -5.728 2.9335
O -0.347371 -4.1542 2.80499
O 0.796199 -2.57659 2.45711
O 1.88628 -0.873683 1.84509
O 2.99571 0.988111 1.04781
O 4.15135 2.95683 0.385018
O 5.10652 5.01656 0.294383
O 5.48277 7.0606 0.900137
O 5.45338 8.58949 2.31962
50
Atoms. Timestep: 140
O 5.05837 8.77038 4.2964
O 4.16906 8.00729 5.8881
O 2.67161 6.73425 6.3763
O 1.10169 5.54774 5.67909
O -0.154206 4.47942 4.18768
O -0.962031 3.6617 2.16503
O -1.4319 3.35761 0.166266
O -1.87256 3.03343 -1.79864
O -2.31871 2.44976 -3.64161
O -2.58813 1.59973 -5.39208
O -2.49549 0.495728 -7.01344
O -2.39095 -1.15578 -8.03635
O -2.44923 -3.08818 -7.83507
O -2.73264 -4.60282 -6.6429
O -3.09152 -5.25086 -4.76558
O -3.62791 -4.5347 -2.60178
O -4.67279 -3.00942 -1.2369
O -5.60973 -1.66144 -0.145245
O -6.61808 -0.184477 0.694509
O -7.33143 1.58711 1.13049
O -7.39536 3.55384 1.3113
O -6.32318 5.00923 1.99898
O -4.52928 5.52723 2.58743
O -2.53758 5.66342 2.42146
O -0.424934 5.39371 2.12829
O 1.62706 4.33707 2.2052
O 3.50851 2.96731 2.28923
O 5.16684 1.65331 1.68102
O 6.37979 0.352215 0.719754
O 6.86764 -1.35933 -0.102216
O 6.3055 -2.95953 -1.08221
O 4.98696 -3.52713 -2.42385
O 3.24551 -3.58347 -3.34089
O 1.31302 -3.59959 -3.61861
O -0.63627 -3.73448 -3.66153
O -2.78073 -4.12893 -3.58149
O -4.72582 -5.26339 -3.03858
O -5.65813 -6.4605 -1.58499
O -5.64953 -7.12836 0.23974
O -4.68014 -7.2971 1.92403
O -3.05908 -6.81004 2.86435
O -1.43461 -5.70024 2.91871
O -0.115743 -4.22143 2.77854
O 0.946614 -2.56208 2.44881
O 1.887 -0.877723 1.86116
O 2.70877 0.79196 1.08889
O 3.75817 2.71547 0.434433
O 4.75467 4.80916 0.377402
O 5.26434 6.82828 0.955673
O 5.34939 8.32881 2.3717
50
Atoms. Timestep: 160
O 4.99367 8.47888 4.21178
O 3.89894 7.93653 5.71734
O 2.40901 6.70797 6.04517
O 1.06074 5.36083 5.38383
O -0.100597 4.19791 4.16864
O -0.997019 3.47021 2.30182
O -1.48947 3.30321 0.155166
O -1.92501 3.23683 -1.85933
O -2.39548 2.84351 -3.74298
O -2.56078 2.07895 -5.52708
O -2.51455 0.87826 -7.06175
O -2.62937 -0.788531 -8.06623
O -2.94339 -2.71483 -7.95438
O -3.15068 -4.18614 -6.57061
O -3.06855 -4.93205 -4.62359
O -3.30774 -4.33123 -2.55127
O -4.51066 -2.991 -1.34297
O -5.66432 -1.65734 -0.229163
O -6.71057 -0.105604 0.55498
O -7.53021 1.69099 0.822611
O -7.44937 3.6296 1.15379
O -6.29165 5.13312 1.76859
O -4.48789 5.81382 2.37951
O -2.41765 5.83003 2.41797
O -0.334787 5.31156 2.08098
O 1.58578 4.21712 2.11458
O 3.37772 2.96587 2.26004
O 5.15249 1.73758 1.8637
O 6.43619 0.265138 1.08684
O 6.84875 -1.50459 0.151526
O 6.34358 -3.03394 -1.05362
O 5.05955 -3.86334 -2.31275
O 3.30842 -3.83301 -3.25415
O 1.31445 -3.77528 -3.65078
O -0.79049 -3.89211 -3.52839
O -3.00667 -3.88935 -3.49982
O -4.57235 -5.16405 -2.88315
O -5.04765 -6.5731 -1.49875
O -5.11667 -7.47151 0.322001
O -4.30495 -7.54859 2.10882
O -2.81759 -6.78623 3.10964
O -1.20636 -5.69804 3.25401
O 0.132684 -4.30515 3.02244
O 1.11581 -2.6489 2.65025
O 1.879 -0.93607 1.89584
O 2.66303 0.800818 0.893216
O 3.5391 2.76936 0.185872
O 4.40603 4.67329 0.315989
O 5.14045 6.46022 1.05925
O 5.40528 7.92728 2.39153
50
Atoms. Timestep: 180
O 5.00728 8.28271 4.16225
O 3.64458 7.93712 5.54688
O 2.15015 6.73108 5.93101
O 0.847838 5.2262 5.46039
O -0.312012 3.87904 4.27422
O -1.1317 3.21945 2.42237
O -1.62942 3.22665 0.279462
O -1.99362 3.4339 -1.84443
O -2.31563 3.39393 -3.90215
O -2.47392 2.67134 -5.79657
O -2.5908 1.30245 -7.31539
O -2.91257 -0.504751 -8.186
O -3.37118 -2.42378 -7.95948
O -3.40541 -3.92447 -6.64891
O -3.10691 -4.74858 -4.77699
O -3.27618 -4.27663 -2.52762
O -4.43552 -2.89789 -1.17769
O -5.85235 -1.60966 -0.38362
O -6.99153 -0.0891761 0.283838
O -7.66834 1.75677 0.648331
O -7.44213 3.67033 1.18398
O -6.25787 5.1946 1.718
O -4.4699 6.1069 2.05635
O -2.39514 6.19773 2.23701
O -0.357714 5.47286 2.14587
O 1.57027 4.23534 2.11094
O 3.50641 2.99362 2.31807
O 5.28249 1.6651 2.18686
O 6.4611 0.0552402 1.49976
O 6.85157 -1.56203 0.290652
O 6.42695 -3.00044 -1.07377
O 5.14564 -3.97736 -2.30145
O 3.3726 -4.23484 -3.23495
O 1.37263 -4.15204 -3.58173
O -0.724223 -3.78991 -3.67641
O -2.9222 -3.79674 -3.48304
O -4.56748 -5.25282 -2.75787
O -4.87135 -6.83716 -1.35492
O -4.63127 -7.82377 0.380069
O -3.98162 -7.78494 2.20167
O -2.61214 -6.95743 3.39869
O -1.00242 -5.77366 3.78333
O 0.404691 -4.33261 3.55824
O 1.3306 -2.63974 2.8789
O 1.98725 -0.944566 1.81903
O 2.62784 0.764399 0.625249
O 3.42263 2.64669 -0.164537
O 4.33557 4.59107 -0.0226207
O 5.15833 6.22097 0.979902
O 5.53968 7.55712 2.3912
50
Atoms. Timestep: 200
O 5.0063 8.11041 4.1152
O 3.48219 7.91466 5.40739
O 1.88197 6.69869 5.98788
O 0.491394 5.10808 5.7445
O -0.638954 3.72578 4.48194
O -1.39947 3.03729 2.49445
O -1.83573 3.13889 0.263956
O -2.0563 3.59092 -1.90227
O -2.13661 3.7682 -4.06043
O -2.35939 3.14782 -6.04751
O -2.73133 1.73344 -7.49953
O -3.24023 -0.11682 -8.18583
O -3.60255 -2.08364 -7.92923
O -3.54418 -3.77027 -6.79763
O -3.33265 -4.62461 -4.91777
O -3.33931 -4.11303 -2.60857
O -4.58175 -2.90955 -1.16418
O -5.97795 -1.55411 -0.446762
O -7.31631 -0.051174 -0.0676616
O -7.75548 1.78395 0.658548
O -7.37193 3.6833 1.26122
O -6.21141 5.29409 1.68148
O -4.46517 6.3269 1.83476
O -2.42461 6.50614 1.95103
O -0.338762 5.72016 2.11402
O 1.69893 4.44345 2.30543
O 3.63718 3.01321 2.49741
O 5.3373 1.48719 2.48117
O 6.47654 -0.104492 1.76212
O 6.8816 -1.60224 0.410958
O 6.43379 -2.93553 -1.07513
O 5.21006 -3.95295 -2.37157
O 3.42278 -4.62335 -3.14675
O 1.48281 -4.39056 -3.63771
O -0.562967 -3.8513 -3.74533
O -2.80335 -3.93234 -3.3861
O -4.41334 -5.48197 -2.63128
O -4.81175 -7.06123 -1.29226
O -4.38175 -8.01488 0.444958
O -3.50068 -7.99378 2.30942
O -2.27836 -7.11204 3.6824
O -0.813784 -5.83749 4.27674
O 0.513845 -4.26794 4.10088
O 1.46417 -2.65952 3.08269
O 2.06199 -1.05468 1.72452
O 2.63396 0.620585 0.388183
O 3.48401 2.48649 -0.487177
O 4.49186 4.42202 -0.416138
O 5.3121 6.101 0.63797
O 5.63311 7.32012 2.36452
50
Atoms. Timestep: 220
O 4.85313 7.84039 3.95349
O 3.33213 7.64237 5.36447
O 1.65325 6.57556 6.09082
O 0.152609 5.09201 5.90559
O -0.998881 3.76911 4.63236
O -1.68789 3.10436 2.5399
O -1.99209 3.16197 0.201754
O -2.02213 3.6299 -2.05175
O -2.04353 3.84997 -4.14517
O -2.29592 3.39521 -6.07572
O -2.91018 2.1521 -7.49538
O -3.47968 0.291165 -8.07913
O -3.68245 -1.72837 -7.93241
O -3.71226 -3.47295 -6.90105
O -3.71297 -4.196 -5.05379
O -4.09521 -3.53177 -3.13981
O -4.8183 -2.75879 -1.41081
O -6.25142 -1.57157 -0.613942
O -7.39007 0.0419429 -0.0743002
O -7.82642 1.84236 0.60786
O -7.301 3.65187 1.32078
O -6.20176 5.37017 1.58868
O -4.44935 6.49208 1.70999
O -2.29598 6.59373 1.76572
O -0.123094 5.9083 2.02118
O 1.8264 4.64372 2.48121
O 3.58788 3.0897 2.81784
O 5.21608 1.45116 2.63863
O 6.47691 -0.166701 1.87897
O 6.87882 -1.6845 0.504795
O 6.381 -2.89592 -1.09967
O 5.23176 -4.00917 -2.30687
O 3.54213 -4.65838 -3.17894
O 1.58783 -4.53585 -3.68489
O -0.444771 -4.23606 -3.59969
O -2.28576 -4.94066 -3.0847
O -3.99552 -5.95947 -2.49083
O -4.60557 -7.25586 -1.11319
O -4.16632 -8.07692 0.659981
O -3.05891 -8.03686 2.35152
O -1.85423 -7.25077 3.81744
O -0.638317 -5.79016 4.58209
O 0.531222 -4.15842 4.316
O 1.41981 -2.68707 3.24029
O 2.05557 -1.23814 1.71081
O 2.75018 0.441927 0.264186
O 3.71489 2.34595 -0.658172
O 4.76591 4.27027 -0.668349
O 5.4968 5.94502 0.372482
O 5.59615 7.18723 2.09737
50
Atoms. Timestep: 240
O 4.55558 7.50174 3.68467
O 3.2413 7.23379 5.31874
O 1.53047 6.39562 6.1306
O -0.124599 5.10873 5.87193
O -1.34231 3.9549 4.52819
O -1.90565 3.37712 2.47928
O -2.00303 3.32456 0.206464
O -1.9631 3.53363 -1.9602
O -1.98668 3.8049 -4.02824
O -2.35756 3.52869 -5.98508
O -3.05088 2.36917 -7.39602
O -3.56948 0.614684 -8.0435
O -3.76451 -1.30586 -7.93046
O -3.81887 -3.00036 -7.16902
O -4.47203 -3.17826 -5.45081
O -5.09131 -2.76892 -3.70824
O -5.57027 -2.35603 -1.91539
O -6.54526 -1.40724 -0.659279
O -7.46485 0.0692208 0.0520144
O -7.76435 1.91117 0.671812
O -7.31399 3.81872 1.21929
O -6.08869 5.43235 1.54821
O -4.26848 6.44313 1.59218
O -2.12064 6.61172 1.72952
O -0.00862482 5.97451 2.00652
O 1.85742 4.69061 2.53871
O 3.5398 3.13039 2.96817
O 5.0999 1.51883 2.76091
O 6.27577 -0.117627 1.9046
O 6.80338 -1.62244 0.574072
O 6.40121 -2.98089 -0.941976
O 5.28166 -4.03509 -2.24879
O 3.66143 -4.51313 -3.29131
O 1.78964 -4.62362 -3.64942
O -0.018468 -5.14084 -3.40119
O -1.51788 -6.18522 -2.79757
O -3.10936 -6.92421 -2.01032
O -4.38454 -7.54228 -0.780984
O -3.84013 -8.08214 0.92643
O -2.7155 -8.03218 2.55749
O -1.5089 -7.21975 3.82085
O -0.475156 -5.77115 4.61485
O 0.502262 -4.09489 4.33278
O 1.31232 -2.59732 3.17911
O 2.06824 -1.21252 1.68818
O 2.94329 0.314248 0.315588
O 3.97222 2.09407 -0.621358
O 5.00055 4.03467 -0.715325
O 5.61508 5.81808 0.220824
O 5.44015 7.08312 1.84906
50
Atoms. Timestep: 260
O 4.3902 7.27466 3.54705
O 3.11193 6.92572 5.16537
O 1.43647 6.12799 6.08146
O -0.311097 5.15449 5.72128
O -1.53023 4.22673 4.35071
O -2.01329 3.62884 2.38291
O -2.00294 3.43548 0.265737
O -1.89879 3.54302 -1.80583
O -1.96448 3.72552 -3.79808
O -2.42641 3.6272 -5.69716
O -3.04856 2.72663 -7.25432
O -3.58093 1.05082 -8.11913
O -3.72252 -0.895717 -8.41523
O -4.12651 -2.46778 -7.53979
O -5.19403 -2.63809 -5.92588
O -6.06411 -2.31143 -4.18314
O -6.47016 -2.03259 -2.2526
O -6.97695 -1.26195 -0.508309
O -7.75057 0.338479 0.325513
O -7.77317 2.22222 0.875261
O -7.26085 4.08991 1.15036
O -5.93202 5.48902 1.40784
O -4.05061 6.36348 1.5847
O -1.9893 6.6129 1.71758
O 0.0200377 5.91992 2.07818
O 1.81955 4.60808 2.51542
O 3.50804 3.15229 2.9009
O 5.00009 1.58161 2.84001
O 6.09608 0.0153171 1.97357
O 6.63337 -1.55211 0.670367
O 6.48839 -3.04681 -0.677161
O 5.53396 -3.90307 -2.17433
O 3.97504 -4.39704 -3.33503
O 2.09273 -4.82311 -3.73572
O 0.589072 -6.08636 -3.39727
O -0.854745 -7.29643 -2.74575
O -2.51314 -7.89977 -1.82052
O -3.87772 -8.08825 -0.412708
O -3.81225 -8.25949 1.42519
O -2.45674 -8.06454 2.80573
O -1.25836 -7.16572 4.04178
O -0.206253 -5.64069 4.55411
O 0.542386 -3.8814 4.18729
O 1.24724 -2.44285 3.01098
O 2.07314 -1.1255 1.70208
O 3.08806 0.270437 0.398289
O 4.21441 1.90323 -0.472909
O 5.15414 3.76026 -0.604919
O 5.57642 5.63495 0.108068
O 5.24297 6.91104 1.69451
50
Atoms. Timestep: 280
O 4.33888 7.1538 3.48431
O 3.05359 6.80842 5.06384
O 1.37886 6.01373 5.90569
O -0.406317 5.17722 5.67496
O -1.62897 4.39098 4.277
O -2.0812 3.69525 2.36182
O -2.07179 3.46155 0.346061
O -1.86025 3.56915 -1.61005
O -1.93658 3.7751 -3.57176
O -2.41741 3.73915 -5.47099
O -3.026 2.99011 -7.18169
O -3.42315 1.44741 -8.42182
O -3.68489 -0.477758 -8.8059
O -4.6392 -1.94817 -7.86082
O -5.88491 -2.35271 -6.29943
O -6.83429 -2.17265 -4.47936
O -7.38325 -1.80018 -2.51008
O -7.66536 -1.03064 -0.631948
O -7.88976 0.477284 0.689886
O -8.01168 2.48941 0.999823
O -7.19264 4.33996 1.19353
O -5.7555 5.758 1.31879
O -3.88827 6.50608 1.54275
O -1.89781 6.58271 1.78081
O 0.0787545 5.82983 2.05718
O 1.78003 4.53331 2.45965
O 3.39835 3.1348 2.85374
O 4.96309 1.64132 2.82704
O 6.05721 0.0621155 2.11358
O 6.60226 -1.54378 0.984133
O 6.57792 -2.90822 -0.551465
O 5.7993 -3.8737 -2.13179
O 4.20399 -4.27389 -3.34137
O 2.57345 -5.45956 -3.7682
O 1.11025 -6.91585 -3.53566
O -0.405824 -8.10978 -2.83656
O -2.02313 -8.72096 -1.75124
O -3.34535 -8.72026 -0.229928
O -3.64482 -8.49933 1.72751
O -2.50696 -8.11911 3.31099
O -1.03663 -7.11119 4.26992
O -0.00316868 -5.47742 4.59675
O 0.636533 -3.70152 4.00348
O 1.22551 -2.22211 2.90857
O 2.10439 -1.02986 1.56965
O 3.15347 0.266747 0.422381
O 4.32141 1.76397 -0.37346
O 5.2592 3.61475 -0.572921
O 5.48332 5.46377 0.138504
O 5.1559 6.74773 1.65631
50
Atoms. Timestep: 300
O 4.38736 7.1557 3.50847
O 3.08244 6.87365 5.02432
O 1.37799 6.13625 5.86769
O -0.426536 5.1998 5.66647
O -1.71309 4.29165 4.41797
O -2.21978 3.62963 2.56477
O -2.18113 3.35069 0.457667
O -1.93415 3.56809 -1.57638
O -1.94168 3.87367 -3.56677
O -2.38236 3.78512 -5.4765
O -2.93226 3.03519 -7.22667
O -3.1105 1.7182 -8.64924
O -3.93414 -0.0314041 -8.83572
O -5.2356 -1.32765 -8.0115
O -6.42902 -2.07925 -6.49081
O -7.39415 -2.17255 -4.64329
O -8.0867 -1.63002 -2.76011
O -8.30326 -0.710124 -0.928625
O -8.23347 0.688852 0.571715
O -8.00414 2.59183 1.25332
O -7.26754 4.49677 1.21713
O -5.78451 5.95539 1.32177
O -3.88361 6.83127 1.49166
O -1.79398 6.67148 1.75833
O 0.130144 5.78768 1.98275
O 1.77038 4.47664 2.40347
O 3.35209 3.07757 2.86053
O 4.92707 1.66848 2.87272
O 6.17058 -0.0108542 2.391
O 6.74919 -1.58081 1.15521
O 6.68059 -2.84284 -0.47228
O 5.78744 -3.63124 -2.15654
O 4.46625 -4.77385 -3.236
O 3.04339 -6.13609 -3.71662
O 1.53188 -7.49581 -3.6216
O -0.0573097 -8.57381 -2.94576
O -1.56345 -9.23044 -1.72438
O -2.68468 -9.29965 -0.0237223
O -3.11419 -8.79987 1.90913
O -2.58459 -8.03124 3.67141
O -1.11982 -7.02771 4.46562
O 0.0427864 -5.42471 4.56494
O 0.65296 -3.66233 3.9762
O 1.22806 -2.16869 2.81335
O 2.0575 -0.960702 1.41003
O 3.2017 0.267364 0.220752
O 4.37247 1.77946 -0.51796
O 5.26795 3.58579 -0.620554
O 5.55117 5.38455 0.182815
O 5.20301 6.67768 1.71908
50
Atoms. Timestep: 320
O 4.51585 7.24692 3.5671
O 3.10705 7.07628 5.1113
O 1.36741 6.34648 5.89927
O -0.354667 5.23958 5.77022
O -1.73799 4.10176 4.6647
O -2.36069 3.39393 2.71782
O -2.32469 3.25388 0.518167
O -2.14921 3.50076 -1.57931
O -2.0224 3.89324 -3.56161
O -2.35963 3.76516 -5.51124
O -2.5324 3.16839 -7.37425
O -3.07174 1.79106 -8.6295
O -4.37976 0.308419 -8.74945
O -5.77609 -0.851089 -7.90894
O -6.88532 -1.73229 -6.51415
O -7.82872 -2.01057 -4.78595
O -8.49162 -1.47297 -2.96711
O -8.80353 -0.399026 -1.27601
O -8.63996 1.00021 0.202498
O -8.01949 2.68783 1.19553
O -7.19951 4.57214 1.44416
O -5.90194 6.16441 1.33954
O -3.97514 6.95046 1.47767
O -1.85682 6.8962 1.58758
O 0.0705276 5.8516 1.90147
O 1.77428 4.44126 2.37539
O 3.43059 2.99155 2.86411
O 4.99258 1.47329 3.09023
O 6.27756 -0.0944314 2.51244
O 6.96839 -1.61769 1.28773
O 6.65254 -2.64518 -0.505132
O 5.79845 -3.81203 -2.02478
O 4.78814 -5.29308 -3.06251
O 3.43741 -6.72199 -3.60415
O 1.81455 -7.91446 -3.58523
O 0.204087 -8.88837 -2.94395
O -1.11646 -9.52944 -1.61375
O -2.00495 -9.67353 0.142785
O -2.53162 -9.12805 1.97806
O -2.42696 -8.0774 3.65042
O -1.39919 -6.80372 4.70739
O -0.0649668 -5.4036 4.53751
O 0.646237 -3.6755 3.94686
O 1.22152 -2.26446 2.67028
O 2.02743 -1.02641 1.2523
O 3.11143 0.250998 -0.0518851
O 4.34572 1.82982 -0.848144
O 5.28766 3.68905 -0.735996
O 5.67907 5.43695 0.229932
O 5.40307 6.69818 1.8104
50
Atoms. Timestep: 340
O 4.64736 7.36452 3.69245
O 3.14494 7.30481 5.14146
O 1.3878 6.50533 5.95838
O -0.335275 5.21312 5.85185
O -1.62714 3.97283 4.72304
O -2.32043 3.23108 2.81876
O -2.52996 3.1205 0.662699
O -2.35216 3.43735 -1.4531
O -2.31077 3.70889 -3.53522
O -2.08485 3.84573 -5.57305
O -2.21244 3.13024 -7.43948
O -3.2626 1.84369 -8.50838
O -4.77182 0.593699 -8.60542
O -6.14029 -0.551407 -7.82459
O -7.30175 -1.41916 -6.53176
O -8.19716 -1.73943 -4.84291
O -8.81888 -1.24411 -3.07036
O -9.15996 -0.0977199 -1.52638
O -8.91549 1.33785 -0.166394
O -8.18297 2.90798 0.889974
O -7.21186 4.6106 1.51052
O -5.90614 6.21282 1.56497
O -4.04248 7.07915 1.37817
O -1.97711 6.90367 1.4896
O 0.00226786 5.95719 1.81145
O 1.78072 4.45528 2.34832
O 3.45134 2.90075 2.96883
O 5.0683 1.31682 3.16011
O 6.39558 -0.223767 2.64254
O 6.96633 -1.48481 1.14579
O 6.67545 -2.78218 -0.442745
O 5.98974 -4.18936 -1.78221
O 5.0578 -5.66338 -2.83142
O 3.7823 -7.08031 -3.43767
O 2.15281 -8.19109 -3.51541
O 0.529569 -9.10665 -2.90516
O -0.700086 -9.77345 -1.52987
O -1.5031 -9.90552 0.245004
O -2.05034 -9.405 2.04105
O -2.19046 -8.22074 3.59558
O -1.58786 -6.69385 4.67674
O -0.360232 -5.17393 4.76407
O 0.639046 -3.78436 3.7265
O 1.26956 -2.33228 2.4653
O 2.03836 -1.13723 0.952522
O 3.02101 0.280254 -0.317076
O 4.19168 1.95518 -1.05101
O 5.25077 3.77289 -0.864104
O 5.79264 5.51188 0.249384
O 5.58986 6.76807 1.92784
50
Atoms. Timestep: 360
O 4.73297 7.48457 3.75768
O 3.1572 7.37954 5.17599
O 1.39751 6.53054 5.95165
O -0.19835 5.21344 5.81695
O -1.41903 3.97577 4.7022
O -2.24913 3.17037 2.91924
O -2.57708 3.00743 0.77328
O -2.696 3.22008 -1.41841
O -2.35251 3.61332 -3.50145
O -1.88837 3.68057 -5.47499
O -2.14665 3.05814 -7.28949
O -3.40785 2.02439 -8.33902
O -4.9574 0.818007 -8.49318
O -6.4407 -0.354232 -7.88844
O -7.65935 -1.23064 -6.60026
O -8.5481 -1.51814 -4.86756
O -9.19711 -1.00855 -3.10352
O -9.41815 0.197157 -1.59066
O -9.1205 1.72271 -0.392629
O -8.41486 3.25689 0.620084
O -7.33058 4.75061 1.39161
O -5.9064 6.15899 1.65661
O -4.06429 7.06416 1.45757
O -1.94721 6.8525 1.44092
O 0.0291925 5.85989 1.78143
O 1.77967 4.47506 2.39556
O 3.39087 2.89316 2.96865
O 5.01798 1.3428 3.19713
O 6.36288 -0.148929 2.51185
O 6.90353 -1.59317 1.10615
O 6.82303 -3.05926 -0.307337
O 6.28551 -4.56141 -1.54152
O 5.3526 -5.95549 -2.5799
O 4.07234 -7.26209 -3.29398
O 2.49677 -8.40762 -3.45502
O 0.887255 -9.31099 -2.85234
O -0.355634 -9.98239 -1.49575
O -1.19349 -10.1484 0.286263
O -1.73674 -9.59163 2.11767
O -1.93632 -8.33319 3.6356
O -1.60899 -6.63412 4.59113
O -0.657086 -4.92371 4.68492
O 0.493388 -3.68705 3.6401
O 1.33325 -2.59391 2.0865
O 2.03925 -1.15646 0.65052
O 2.97223 0.349967 -0.572461
O 4.06786 2.11591 -1.09941
O 5.13924 3.93107 -0.851277
O 5.7694 5.53437 0.291226
O 5.67258 6.77939 1.97599
50
Atoms. Timestep: 380
O 4.70824 7.47293 3.74369
O 3.25741 7.366 5.15519
O 1.55774 6.52819 5.91049
O -0.0264443 5.24863 5.75048
O -1.32929 3.98531 4.70044
O -2.14946 3.1928 2.88244
O -2.68559 2.85521 0.759285
O -2.73951 3.0373 -1.34058
O -2.31074 3.4099 -3.26381
O -1.87855 3.44186 -5.18388
O -2.23694 3.03319 -7.06246
O -3.5245 2.12031 -8.22161
O -5.12606 0.958498 -8.43358
O -6.65811 -0.199587 -7.94321
O -7.92292 -1.06282 -6.69158
O -8.87431 -1.30716 -4.96954
O -9.51685 -0.80664 -3.1583
O -9.66173 0.437038 -1.61391
O -9.37459 2.045 -0.480363
O -8.6821 3.62942 0.472397
O -7.50486 5.06536 1.22857
O -5.87186 6.23211 1.56219
O -3.93794 6.85021 1.61958
O -1.86778 6.74433 1.51937
O 0.0276609 5.77512 1.81818
O 1.75655 4.37432 2.39121
O 3.37316 2.94529 2.97787
O 4.90455 1.48347 3.01617
O 6.14908 -0.0799916 2.32345
O 6.88788 -1.72265 1.27003
O 7.07037 -3.30226 -0.0356413
O 6.6659 -4.82235 -1.31351
O 5.71227 -6.19365 -2.3811
O 4.36513 -7.39452 -3.20631
O 2.77679 -8.56549 -3.41114
O 1.20444 -9.55721 -2.74991
O -0.101928 -10.1846 -1.40523
O -0.992009 -10.3195 0.355403
O -1.50983 -9.70044 2.16185
O -1.70951 -8.40224 3.6561
O -1.5385 -6.61547 4.49237
O -0.814133 -4.78045 4.37008
O 0.295601 -3.504 3.33545
O 1.25502 -2.5922 1.79276
O 2.04225 -1.31565 0.330149
O 2.93488 0.43483 -0.667701
O 4.03467 2.21936 -1.15629
O 5.00754 4.02236 -0.759108
O 5.66718 5.6346 0.378588
O 5.59404 6.84448 2.04561
50
Atoms. Timestep: 400
O 4.73117 7.49369 3.73893
O 3.35989 7.35144 5.19979
O 1.69539 6.48221 5.91449
O 0.0464547 5.23201 5.74642
O -1.28822 4.03064 4.5982
O -2.21258 3.15472 2.88436
O -2.66219 2.76257 0.914921
O -2.62795 2.83338 -1.09567
O -2.26366 3.09857 -3.04097
O -2.00416 3.2708 -4.9961
O -2.44229 2.95999 -6.84836
O -3.67109 2.13879 -8.09528
O -5.25456 1.04691 -8.43804
O -6.79928 -0.0683214 -7.93465
O -8.15096 -0.892003 -6.73725
O -9.16772 -1.07554 -5.05212
O -9.72448 -0.534386 -3.24868
O -9.89971 0.666006 -1.68133
O -9.64849 2.28459 -0.487446
O -8.91991 3.98434 0.40732
O -7.64998 5.45782 1.02457
O -5.88066 6.36963 1.45855
O -3.8572 6.74348 1.63501
O -1.78958 6.5522 1.74357
O 0.0992188 5.67331 1.87832
O 1.69578 4.35255 2.38975
O 3.30761 2.99707 2.86745
O 4.84027 1.50128 2.78142
O 6.00931 -0.149469 2.25805
O 6.90924 -1.81218 1.4315
O 7.31964 -3.4771 0.304897
O 7.02317 -5.00054 -1.04127
O 6.06978 -6.35907 -2.26939
O 4.6497 -7.54683 -3.10302
O 3.03437 -8.6946 -3.28428
O 1.49226 -9.74253 -2.6323
O 0.156335 -10.3797 -1.30971
O -0.823898 -10.4085 0.416177
O -1.34277 -9.76032 2.20036
O -1.53148 -8.42385 3.63228
O -1.40521 -6.59848 4.30784
O -0.833614 -4.77167 3.99157
O 0.0721762 -3.42368 2.88749
O 1.05691 -2.38522 1.46566
O 2.0298 -1.22745 0.091238
O 2.99537 0.341009 -0.819133
O 3.99346 2.22674 -1.11246
O 4.97911 4.07911 -0.746943
O 5.5192 5.70744 0.397055
O 5.50716 6.94606 1.99312
50
Atoms. Timestep: 420
O 4.80694 7.61938 3.76907
O 3.42534 7.32129 5.28783
O 1.70894 6.3967 6.01309
O 0.0612947 5.19415 5.69574
O -1.30747 4.06902 4.70168
O -2.26648 3.1158 3.14942
O -2.62919 2.63166 1.15742
O -2.51755 2.57943 -0.898454
O -2.25606 2.81257 -2.88975
O -2.18441 3.10507 -4.83348
O -2.64812 2.89924 -6.69716
O -3.82966 2.11851 -8.02228
O -5.39378 1.04441 -8.4656
O -6.94962 -0.00424581 -7.92569
O -8.34534 -0.711001 -6.76484
O -9.37725 -0.844035 -5.10021
O -9.92652 -0.2125 -3.29764
O -10.0937 1.00784 -1.71