100
Atoms. Timestep: 0
O 4.94658 8.08817 4.14912
O 4.21356 8.23425 4.75194
O 3.37701 8.17304 5.21942
O 2.4985 7.91846 5.51207
O 1.63871 7.5015 5.60858
O 0.849138 6.96419 5.50601
O 0.16716 6.35272 5.2164
O -0.385374 5.7116 4.76167
O -0.800688 5.08003 4.16842
O -1.08218 4.4902 3.46371
O -1.2443 3.95014 2.68527
O -1.30502 3.45557 1.86316
O -1.28432 2.99633 1.01877
O -1.20225 2.5587 0.166602
O -1.07813 2.12693 -0.683499
O -0.930495 1.68428 -1.52421
O -0.777541 1.21379 -2.34868
O -0.637799 0.698891 -3.14855
O -0.530735 0.124354 -3.91194
O -0.476989 -0.521947 -4.62154
O -0.498068 -1.24637 -5.25293
O -0.615053 -2.04554 -5.77368
O -0.845654 -2.90147 -6.14429
O -1.19925 -3.77663 -6.32244
O -1.67048 -4.61194 -6.27168
O -2.23553 -5.3322 -5.98152
O -2.85199 -5.86603 -5.47455
O -3.47141 -6.17196 -4.80746
O -4.05303 -6.24636 -4.04658
O -4.57253 -6.10883 -3.2501
O -5.02102 -5.79104 -2.46179
O -5.40133 -5.32768 -1.71045
O -5.71978 -4.75128 -1.01041
O -5.97043 -4.08471 -0.364898
O -6.14789 -3.34597 0.223886
O -6.24776 -2.55159 0.755785
O -6.26627 -1.71679 1.23195
O -6.1999 -0.855864 1.65428
O -6.04522 0.0174049 2.02502
O -5.79885 0.889151 2.34645
O -5.45768 1.74489 2.62076
O -5.01924 2.56901 2.84987
O -4.48231 3.34434 3.03538
O -3.84779 4.0519 3.17861
O -3.11969 4.67087 3.28068
O -2.30629 5.17891 3.34281
O -1.4214 5.55292 3.36649
O -0.485438 5.7706 3.35392
O 0.47271 5.82079 3.30335
O 1.42144 5.70768 3.202
O 2.33008 5.4413 3.0389
O 3.16982 5.03699 2.80528
O 3.91427 4.5148 2.4949
O 4.53993 3.89888 2.10451
O 5.02671 3.21697 1.63412
O 5.35843 2.49984 1.08741
O 5.52352 1.78071 0.472113
O 5.52684 1.07951 -0.184733
O 5.37908 0.410634 -0.858575
O 5.09449 -0.217009 -1.52827
O 4.68872 -0.799209 -2.17629
O 4.17739 -1.33543 -2.78838
O 3.57525 -1.82778 -3.35293
O 2.89587 -2.28028 -3.86032
O 2.1516 -2.69812 -4.30221
O 1.35386 -3.0872 -4.67105
O 0.513477 -3.45366 -4.95965
O -0.358805 -3.80361 -5.16083
O -1.25176 -4.14283 -5.26739
O -2.15303 -4.47658 -5.27215
O -3.04694 -4.81132 -5.16058
O -3.9131 -5.13816 -4.90315
O -4.71978 -5.43477 -4.47396
O -5.41998 -5.67339 -3.86144
O -5.9551 -5.82342 -3.07848
O -6.26549 -5.85722 -2.17071
O -6.31213 -5.75839 -1.21686
O -6.10179 -5.53487 -0.30702
O -5.66993 -5.207 0.485649
O -5.06922 -4.80334 1.11727
O -4.35414 -4.35048 1.57198
O -3.57204 -3.86923 1.85525
O -2.75915 -3.37324 1.98566
O -1.94047 -2.86945 1.98818
O -1.13157 -2.35939 1.88958
O -0.340982 -1.84056 1.71605
O 0.427397 -1.30773 1.49228
O 1.17232 -0.753993 1.24154
O 1.89346 -0.17161 0.986232
O 2.59012 0.446931 0.748718
O 3.26003 1.10783 0.552039
O 3.89813 1.81468 0.420403
O 4.49538 2.56672 0.37908
O 5.03804 3.3566 0.453623
O 5.50336 4.17069 0.66337
O 5.85603 4.99396 1.01105
O 6.06036 5.80091 1.4905
O 6.08477 6.55623 2.08334
O 5.90759 7.21758 2.75682
O 5.52324 7.74098 3.46429
100
Atoms. Timestep: 10
O 4.98491 8.14284 4.17466
O 4.24346 8.29008 4.78753
O 3.39799 8.22829 5.26458
O 2.51092 7.97391 5.56847
O 1.64239 7.55741 5.67889
O 0.842448 7.01965 5.59529
O 0.14477 6.399 5.33361
O -0.419039 5.71433 4.91102
O -0.812298 4.99762 4.3209
O -1.06347 4.38356 3.53797
O -1.24353 3.89262 2.68218
O -1.32153 3.4355 1.82638
O -1.31267 2.99873 0.972572
O -1.23709 2.57733 0.117521
O -1.11481 2.15623 -0.733976
O -0.965393 1.72009 -1.57413
O -0.806388 1.25715 -2.39555
O -0.654087 0.755007 -3.19223
O -0.54703 0.186168 -3.95112
O -0.492206 -0.45163 -4.66378
O -0.513253 -1.16738 -5.30895
O -0.630829 -1.96072 -5.85977
O -0.860874 -2.82531 -6.27874
O -1.20073 -3.74607 -6.5094
O -1.64815 -4.66344 -6.46909
O -2.1982 -5.45779 -6.13853
O -2.80795 -6.03598 -5.57304
O -3.41765 -6.35699 -4.84365
O -3.98223 -6.41686 -4.02742
O -4.47979 -6.23333 -3.19537
O -4.91091 -5.83525 -2.40481
O -5.30942 -5.27211 -1.69535
O -5.70464 -4.63499 -1.0457
O -6.03392 -3.98562 -0.389543
O -6.22921 -3.27462 0.230578
O -6.31994 -2.49931 0.777431
O -6.32634 -1.67783 1.255
O -6.25159 -0.827072 1.6745
O -6.09383 0.038346 2.04316
O -5.84914 0.904644 2.36379
O -5.51225 1.75697 2.63838
O -5.08042 2.57952 2.8683
O -4.55486 3.3569 3.05573
O -3.9355 4.07182 3.20114
O -3.22671 4.71386 3.30318
O -2.42745 5.274 3.34587
O -1.52362 5.70669 3.30895
O -0.521408 5.89442 3.25772
O 0.479968 5.88199 3.24014
O 1.44013 5.73683 3.17542
O 2.34477 5.4565 3.03679
O 3.17688 5.04462 2.82491
O 3.91872 4.51266 2.54018
O 4.55725 3.8731 2.18648
O 5.09456 3.15172 1.75848
O 5.50361 2.41253 1.18965
O 5.67622 1.7057 0.490808
O 5.64205 1.0199 -0.215102
O 5.46254 0.361456 -0.900722
O 5.15931 -0.257792 -1.56867
O 4.74463 -0.833594 -2.21185
O 4.23072 -1.36527 -2.81955
O 3.62916 -1.85429 -3.37863
O 2.95505 -2.30592 -3.88046
O 2.22163 -2.72632 -4.31737
O 1.43855 -3.12398 -4.68052
O 0.609127 -3.50763 -4.95187
O -0.268596 -3.87185 -5.11
O -1.20009 -4.17134 -5.15914
O -2.16011 -4.41555 -5.18428
O -3.10667 -4.69967 -5.15369
O -4.01453 -5.0298 -4.9671
O -4.85551 -5.3651 -4.57671
O -5.58347 -5.65636 -3.96646
O -6.13655 -5.86156 -3.15519
O -6.44657 -5.9464 -2.19366
O -6.46326 -5.89203 -1.17235
O -6.18405 -5.67788 -0.210403
O -5.68661 -5.31612 0.592321
O -5.05167 -4.87233 1.21131
O -4.32429 -4.39644 1.6541
O -3.53954 -3.90237 1.92643
O -2.72775 -3.40178 2.04968
O -1.91253 -2.89841 2.0497
O -1.10801 -2.39368 1.94794
O -0.319867 -1.88718 1.76607
O 0.445363 -1.36224 1.53782
O 1.18639 -0.811582 1.28321
O 1.89976 -0.227632 1.02264
O 2.58375 0.396894 0.779417
O 3.23512 1.07222 0.568049
O 3.84814 1.81298 0.39799
O 4.4357 2.61818 0.27773
O 5.04982 3.43514 0.305654
O 5.58518 4.24562 0.559865
O 5.95065 5.06353 0.957779
O 6.14243 5.86529 1.46631
O 6.15224 6.6153 2.07631
O 5.96492 7.27424 2.76181
O 5.57069 7.79623 3.47984
100
Atoms. Timestep: 20
O 5.07613 8.27723 4.23741
O 4.31927 8.42284 4.86928
O 3.46008 8.36543 5.3705
O 2.55429 8.11724 5.70683
O 1.65396 7.70074 5.8571
O 0.805135 7.14414 5.82086
O 0.0638275 6.45616 5.61415
O -0.487768 5.64528 5.23221
O -0.820074 4.83726 4.61075
O -1.03317 4.20174 3.75763
O -1.21135 3.77698 2.78512
O -1.35135 3.41986 1.81714
O -1.39177 3.03435 0.890732
O -1.33941 2.64212 -0.00317191
O -1.22187 2.2457 -0.869047
O -1.06392 1.83044 -1.70882
O -0.88263 1.3904 -2.52739
O -0.705093 0.905328 -3.32308
O -0.587158 0.343966 -4.08926
O -0.537865 -0.295034 -4.81951
O -0.569862 -1.00902 -5.50499
O -0.704923 -1.80808 -6.11854
O -0.932833 -2.7087 -6.61432
O -1.2388 -3.71502 -6.9005
O -1.6306 -4.7577 -6.86338
O -2.11926 -5.68929 -6.47304
O -2.68184 -6.37443 -5.80037
O -3.25617 -6.75085 -4.94899
O -3.7836 -6.79657 -4.01079
O -4.24189 -6.50607 -3.08645
O -4.6605 -5.91179 -2.29427
O -5.12429 -5.15449 -1.68333
O -5.65728 -4.42541 -1.13225
O -6.1418 -3.78356 -0.503569
O -6.43295 -3.13628 0.187045
O -6.52538 -2.39746 0.809444
O -6.50302 -1.58622 1.31765
O -6.40415 -0.743149 1.73973
O -6.23526 0.108813 2.10293
O -5.99242 0.95919 2.41911
O -5.66619 1.79955 2.69224
O -5.25096 2.62162 2.9252
O -4.74146 3.41521 3.11982
O -4.13743 4.17292 3.27345
O -3.44468 4.89544 3.35634
O -2.65083 5.55272 3.31406
O -1.71403 6.00894 3.17341
O -0.670458 6.1633 3.06633
O 0.379491 6.06245 3.06412
O 1.38605 5.83711 3.0948
O 2.34333 5.51264 3.03686
O 3.22041 5.04744 2.87365
O 3.99101 4.43572 2.6424
O 4.67115 3.71382 2.37413
O 5.29545 2.95533 1.99709
O 5.78341 2.22649 1.395
O 6.00985 1.55406 0.607595
O 5.95091 0.91373 -0.213804
O 5.708 0.273923 -0.964005
O 5.35606 -0.344082 -1.65179
O 4.91554 -0.916566 -2.29615
O 4.392 -1.43992 -2.89542
O 3.79478 -1.92258 -3.44467
O 3.13174 -2.37599 -3.9394
O 2.41115 -2.81291 -4.37499
O 1.63522 -3.25093 -4.72678
O 0.795189 -3.69053 -4.93589
O -0.126611 -4.05064 -4.97043
O -1.12855 -4.23188 -4.943
O -2.17868 -4.30768 -5.00066
O -3.23767 -4.45913 -5.11616
O -4.26267 -4.78212 -5.0894
O -5.19609 -5.20343 -4.77435
O -5.97608 -5.61208 -4.15384
O -6.5377 -5.93659 -3.27284
O -6.81081 -6.13775 -2.21072
O -6.74072 -6.17235 -1.08684
O -6.34996 -5.99148 -0.052873
O -5.74776 -5.60699 0.78217
O -5.04504 -5.09843 1.40059
O -4.28733 -4.55737 1.83673
O -3.48812 -4.02398 2.10583
O -2.66997 -3.50341 2.22653
O -1.85263 -2.99504 2.22508
O -1.04598 -2.5008 2.11118
O -0.256141 -2.01647 1.91137
O 0.507525 -1.51416 1.6641
O 1.23966 -0.969696 1.39518
O 1.94044 -0.369787 1.12216
O 2.60722 0.298324 0.854799
O 3.21885 1.05484 0.589912
O 3.77143 1.89564 0.304481
O 4.3694 2.75862 0.0558622
O 5.05921 3.59293 0.0204347
O 5.71359 4.39332 0.285576
O 6.15916 5.20078 0.78236
O 6.35088 6.01153 1.38565
O 6.32804 6.76941 2.05724
O 6.10501 7.42424 2.78166
O 5.68285 7.93754 3.52438
100
Atoms. Timestep: 30
O 5.18816 8.44396 4.3143
O 4.41067 8.58409 4.96973
O 3.5295 8.53153 5.5047
O 2.58712 8.28123 5.87917
O 1.63697 7.85094 6.0762
O 0.748933 7.24085 6.10368
O 0.0219342 6.44132 5.95955
O -0.480558 5.54598 5.577
O -0.803981 4.71888 4.91284
O -1.01454 4.06958 4.01825
O -1.17774 3.64481 2.98238
O -1.34558 3.38853 1.91336
O -1.47714 3.12875 0.886825
O -1.49492 2.79224 -0.0823069
O -1.39612 2.41921 -1.00622
O -1.21704 2.01987 -1.8947
O -0.991681 1.58864 -2.74966
O -0.783383 1.09539 -3.57075
O -0.651169 0.521822 -4.36341
O -0.618885 -0.130893 -5.12394
O -0.691185 -0.860663 -5.84752
O -0.844735 -1.6886 -6.50533
O -1.05705 -2.64909 -7.02253
O -1.32477 -3.73237 -7.28614
O -1.6589 -4.85205 -7.21807
O -2.05944 -5.87689 -6.79013
O -2.52017 -6.67174 -6.04479
O -3.01698 -7.12409 -5.07893
O -3.49355 -7.15378 -4.01729
O -3.92993 -6.7329 -3.03047
O -4.38984 -5.97156 -2.27172
O -4.94157 -5.09567 -1.71867
O -5.57422 -4.28042 -1.226
O -6.18898 -3.58431 -0.66205
O -6.64367 -2.97228 0.0385314
O -6.8226 -2.30943 0.769931
O -6.78687 -1.5306 1.36706
O -6.65773 -0.682572 1.8202
O -6.47112 0.188669 2.19297
O -6.21621 1.06252 2.51706
O -5.88131 1.92819 2.7979
O -5.45748 2.77378 3.0381
O -4.94579 3.59481 3.23947
O -4.3607 4.40692 3.37281
O -3.69406 5.20125 3.36666
O -2.89148 5.8704 3.21395
O -1.93456 6.29923 3.02027
O -0.878271 6.44674 2.87932
O 0.208284 6.31859 2.84748
O 1.27213 5.99141 2.92267
O 2.29854 5.5535 2.98354
O 3.25075 4.98333 2.93181
O 4.09514 4.2627 2.81285
O 4.86773 3.47828 2.61637
O 5.55419 2.71427 2.22015
O 6.07144 2.00274 1.58657
O 6.35068 1.35682 0.770681
O 6.34384 0.77123 -0.120951
O 6.0877 0.198792 -0.960631
O 5.69491 -0.393391 -1.69289
O 5.22349 -0.976669 -2.35582
O 4.67575 -1.52211 -2.97586
O 4.05409 -2.02724 -3.54774
O 3.3705 -2.50579 -4.06336
O 2.63735 -2.98721 -4.50385
O 1.84409 -3.49957 -4.79804
O 0.956973 -3.96869 -4.86642
O -0.0407235 -4.23258 -4.78587
O -1.1222 -4.27679 -4.75585
O -2.25743 -4.2345 -4.85377
O -3.41509 -4.27363 -5.03362
O -4.55345 -4.53412 -5.12425
O -5.59038 -5.00537 -4.89694
O -6.41617 -5.53692 -4.27047
O -6.94571 -6.0007 -3.32581
O -7.12852 -6.32518 -2.20019
O -6.9622 -6.44146 -1.03436
O -6.50282 -6.3187 0.0427256
O -5.83968 -5.97048 0.929179
O -5.07986 -5.45302 1.58427
O -4.29261 -4.85513 2.03296
O -3.48509 -4.26624 2.32847
O -2.65559 -3.70827 2.47777
O -1.81726 -3.18271 2.48403
O -0.98149 -2.68816 2.36401
O -0.16082 -2.21164 2.14011
O 0.635055 -1.72014 1.85328
O 1.38475 -1.15847 1.54706
O 2.07639 -0.499738 1.24897
O 2.69074 0.265164 0.937361
O 3.20663 1.12809 0.563215
O 3.72734 2.02856 0.149612
O 4.3636 2.91973 -0.157627
O 5.08705 3.78278 -0.229476
O 5.79324 4.60603 0.00207034
O 6.33135 5.39504 0.532548
O 6.57963 6.17824 1.24171
O 6.54422 6.93459 2.00467
O 6.28127 7.5959 2.78932
O 5.82277 8.1095 3.5731
100
Atoms. Timestep: 40
O 5.29833 8.59289 4.37524
O 4.48384 8.73565 5.07235
O 3.56174 8.66998 5.6364
O 2.58398 8.40991 6.04355
O 1.61926 7.94423 6.29688
O 0.766498 7.24705 6.39424
O 0.100774 6.37686 6.26684
O -0.395476 5.47655 5.85371
O -0.747306 4.66463 5.17005
O -0.986644 4.02089 4.25839
O -1.17133 3.58092 3.2043
O -1.33876 3.33264 2.08488
O -1.51423 3.1894 0.964892
O -1.62659 2.97836 -0.115463
O -1.5878 2.65388 -1.13667
O -1.39485 2.26994 -2.09831
O -1.13545 1.82818 -3.00997
O -0.907818 1.3043 -3.88151
O -0.767063 0.699821 -4.72792
O -0.75874 0.0198384 -5.54212
O -0.862323 -0.750962 -6.29185
O -1.01961 -1.64317 -6.93662
O -1.21348 -2.67378 -7.39262
O -1.45071 -3.80169 -7.57661
O -1.72445 -4.93991 -7.44132
O -2.03265 -5.98908 -6.98037
O -2.3725 -6.82653 -6.20785
O -2.74338 -7.30899 -5.19294
O -3.15604 -7.30121 -4.09191
O -3.62864 -6.8069 -3.12055
O -4.17231 -6.02205 -2.37544
O -4.78632 -5.13261 -1.80208
O -5.46443 -4.2512 -1.31133
O -6.15251 -3.4749 -0.793078
O -6.74282 -2.81384 -0.157125
O -7.101 -2.19984 0.613099
O -7.14172 -1.48441 1.35192
O -6.98591 -0.635359 1.90002
O -6.76415 0.275653 2.30283
O -6.48502 1.19806 2.63922
O -6.12404 2.10843 2.9346
O -5.6758 2.99614 3.19152
O -5.16351 3.87259 3.38226
O -4.59953 4.74115 3.42641
O -3.93241 5.52862 3.29908
O -3.10863 6.14498 3.08654
O -2.14248 6.54715 2.87111
O -1.06626 6.68109 2.71611
O 0.0614151 6.54113 2.66242
O 1.1735 6.14348 2.70732
O 2.22402 5.54049 2.84018
O 3.22264 4.82306 2.98677
O 4.17584 4.0579 3.01924
O 5.04839 3.27227 2.83157
O 5.78077 2.49803 2.40138
O 6.32425 1.78579 1.74989
O 6.63336 1.15695 0.930932
O 6.70395 0.601397 0.0292092
O 6.52142 0.0891308 -0.874729
O 6.12172 -0.444527 -1.69653
O 5.60498 -1.02475 -2.41141
O 5.02014 -1.60414 -3.06122
O 4.36712 -2.14778 -3.66815
O 3.65705 -2.67749 -4.21612
O 2.88922 -3.24796 -4.63087
O 2.02691 -3.82061 -4.79384
O 1.04114 -4.21217 -4.72848
O -0.0444728 -4.33905 -4.64122
O -1.20167 -4.28951 -4.65525
O -2.40681 -4.20642 -4.78392
O -3.6226 -4.22092 -4.94081
O -4.82175 -4.41487 -5.00166
O -5.91828 -4.84427 -4.80611
O -6.75302 -5.4365 -4.21867
O -7.21609 -6.01235 -3.29427
O -7.30832 -6.42994 -2.1858
O -7.08114 -6.6258 -1.03516
O -6.60047 -6.58401 0.0457642
O -5.93696 -6.31497 0.976912
O -5.159 -5.85275 1.70076
O -4.34346 -5.26215 2.21213
O -3.52402 -4.62181 2.55124
O -2.67884 -4.00938 2.74247
O -1.79742 -3.44738 2.77393
O -0.904864 -2.9327 2.6556
O -0.0290288 -2.44587 2.41266
O 0.808527 -1.93154 2.08748
O 1.57778 -1.31926 1.73855
O 2.24216 -0.564567 1.38428
O 2.75633 0.317678 0.965861
O 3.21752 1.24075 0.471788
O 3.76225 2.16334 0.0107492
O 4.41127 3.08214 -0.30205
O 5.12717 3.97903 -0.386268
O 5.81853 4.83776 -0.180978
O 6.38317 5.64331 0.321339
O 6.71259 6.38614 1.06449
O 6.72255 7.08968 1.91528
O 6.44996 7.73289 2.76517
O 5.96271 8.25065 3.59175
100
Atoms. Timestep: 50
O 5.37083 8.68661 4.41126
O 4.52365 8.82966 5.13789
O 3.5689 8.75903 5.73048
O 2.58645 8.47158 6.18584
O 1.6747 7.93619 6.50527
O 0.901366 7.1781 6.62644
O 0.259581 6.31087 6.47764
O -0.255789 5.44462 6.04876
O -0.648242 4.66742 5.35418
O -0.946923 4.04078 4.4506
O -1.17592 3.59514 3.39281
O -1.36839 3.3232 2.24874
O -1.53292 3.18497 1.06862
O -1.6709 3.09341 -0.110605
O -1.69624 2.88782 -1.24917
O -1.55659 2.53253 -2.30572
O -1.32037 2.06546 -3.28016
O -1.09493 1.51692 -4.21236
O -0.969584 0.886804 -5.12171
O -0.964927 0.161398 -5.98523
O -1.05149 -0.685734 -6.74633
O -1.20365 -1.66671 -7.32665
O -1.38787 -2.75255 -7.67269
O -1.58793 -3.8888 -7.75236
O -1.8 -5.00999 -7.54396
O -2.01357 -6.0244 -7.04158
O -2.23454 -6.81776 -6.26767
O -2.49628 -7.24102 -5.28401
O -2.87905 -7.19022 -4.24545
O -3.40528 -6.7404 -3.32135
O -4.011 -6.04107 -2.55438
O -4.65501 -5.20334 -1.93165
O -5.33793 -4.33064 -1.39907
O -6.04685 -3.48298 -0.88941
O -6.71992 -2.72208 -0.300075
O -7.23118 -2.03847 0.421083
O -7.45186 -1.34853 1.2285
O -7.35298 -0.542432 1.92756
O -7.08654 0.374664 2.41177
O -6.76057 1.33263 2.76946
O -6.37145 2.28326 3.08315
O -5.92396 3.223 3.34335
O -5.43257 4.16593 3.46457
O -4.85772 5.05985 3.39764
O -4.14064 5.81904 3.19961
O -3.27811 6.39658 2.95346
O -2.27559 6.74451 2.73003
O -1.1716 6.83994 2.57743
O -0.00774803 6.63982 2.50631
O 1.12894 6.14656 2.5491
O 2.17098 5.44487 2.72579
O 3.15328 4.67408 2.97489
O 4.15086 3.90204 3.11038
O 5.11022 3.12143 2.97269
O 5.91396 2.34919 2.55095
O 6.49677 1.62722 1.90604
O 6.86463 0.983837 1.09351
O 6.99681 0.42471 0.173915
O 6.88912 -0.082469 -0.774992
O 6.54141 -0.57366 -1.67664
O 6.00556 -1.10267 -2.47057
O 5.37347 -1.68182 -3.16328
O 4.69754 -2.2792 -3.79655
O 3.9687 -2.90742 -4.3267
O 3.13637 -3.55437 -4.62517
O 2.15743 -4.06683 -4.66219
O 1.05385 -4.32336 -4.59817
O -0.135416 -4.35773 -4.57392
O -1.35776 -4.28246 -4.64071
O -2.58861 -4.22654 -4.74815
O -3.81807 -4.26231 -4.82597
O -5.01241 -4.43922 -4.77526
O -6.0903 -4.7956 -4.51906
O -6.90142 -5.34568 -3.99042
O -7.32003 -5.95289 -3.17106
O -7.36369 -6.43725 -2.15341
O -7.11352 -6.71579 -1.0674
O -6.64136 -6.76498 -0.0108791
O -6.00156 -6.59284 0.939841
O -5.24835 -6.22314 1.73587
O -4.42455 -5.68993 2.34492
O -3.5669 -5.04743 2.749
O -2.68025 -4.38095 2.97235
O -1.756 -3.76819 3.03147
O -0.81197 -3.22163 2.92542
O 0.109735 -2.69694 2.68849
O 0.972029 -2.11398 2.35419
O 1.73334 -1.40488 1.95631
O 2.32433 -0.54729 1.47792
O 2.79728 0.383186 0.924837
O 3.2899 1.33061 0.382358
O 3.85188 2.28328 -0.0699342
O 4.4879 3.23021 -0.367257
O 5.15774 4.16188 -0.442281
O 5.80223 5.05663 -0.255976
O 6.34336 5.88801 0.211193
O 6.70036 6.62844 0.922923
O 6.78936 7.27153 1.79917
O 6.56039 7.84733 2.71566
O 6.06346 8.34068 3.59224
100
Atoms. Timestep: 60
O 5.38639 8.70639 4.41618
O 4.52713 8.84739 5.14924
O 3.59385 8.77671 5.77991
O 2.67855 8.44313 6.30094
O 1.84517 7.85062 6.65678
O 1.10238 7.08727 6.76669
O 0.457576 6.25334 6.60072
O -0.0857485 5.43402 6.15613
O -0.536149 4.70372 5.46387
O -0.89872 4.10242 4.55853
O -1.18676 3.65745 3.49739
O -1.40521 3.36867 2.33868
O -1.56166 3.20256 1.13434
O -1.64908 3.11485 -0.0855539
O -1.69173 3.01697 -1.30113
O -1.65641 2.74512 -2.46761
O -1.52708 2.28559 -3.53988
O -1.36118 1.71707 -4.54832
O -1.25024 1.05573 -5.51097
O -1.2166 0.271867 -6.38506
O -1.26574 -0.654776 -7.10651
O -1.38629 -1.70214 -7.60964
O -1.54982 -2.82014 -7.85676
O -1.71129 -3.94947 -7.84502
O -1.85019 -5.02289 -7.57825
O -1.96804 -5.96263 -7.06058
O -2.09636 -6.66393 -6.30151
O -2.33519 -7.00087 -5.36154
O -2.74143 -6.94029 -4.40193
O -3.27489 -6.58089 -3.52093
O -3.88835 -5.98595 -2.74167
O -4.54364 -5.23443 -2.06715
O -5.22536 -4.40255 -1.48301
O -5.92391 -3.55085 -0.937075
O -6.59803 -2.71256 -0.373916
O -7.19182 -1.90055 0.281717
O -7.58318 -1.13551 1.03827
O -7.65781 -0.35799 1.82665
O -7.42078 0.508306 2.46516
O -7.03758 1.45043 2.90417
O -6.62958 2.43083 3.2255
O -6.20911 3.43413 3.42255
O -5.72172 4.41553 3.44309
O -5.09776 5.30455 3.31154
O -4.32329 6.05223 3.08677
O -3.38682 6.59575 2.82914
O -2.31346 6.88424 2.60552
O -1.14685 6.87524 2.44979
O 0.0196172 6.54635 2.40326
O 1.09964 5.98057 2.49878
O 2.11714 5.30532 2.69455
O 3.09717 4.57306 2.88745
O 4.05373 3.80444 3.01812
O 5.0033 3.04304 2.98542
O 5.8857 2.2812 2.66109
O 6.5779 1.53477 2.04709
O 7.02383 0.851659 1.23386
O 7.21562 0.25005 0.296883
O 7.15412 -0.280063 -0.685539
O 6.86299 -0.772408 -1.64186
O 6.36377 -1.25571 -2.51843
O 5.72932 -1.79555 -3.27861
O 5.03241 -2.45008 -3.89221
O 4.25052 -3.17129 -4.29295
O 3.30545 -3.78614 -4.4544
O 2.19412 -4.15837 -4.48804
O 0.980826 -4.30323 -4.51379
O -0.24615 -4.3073 -4.57118
O -1.48619 -4.27367 -4.64297
O -2.72285 -4.26571 -4.69293
O -3.93923 -4.33974 -4.67249
O -5.08657 -4.5246 -4.52251
O -6.09232 -4.84235 -4.20065
O -6.87828 -5.30521 -3.68175
O -7.31137 -5.87623 -2.94572
O -7.34765 -6.39411 -2.0493
O -7.09172 -6.73833 -1.06703
O -6.63156 -6.87249 -0.0682707
O -6.01982 -6.7932 0.881148
O -5.29429 -6.51431 1.72636
O -4.475 -6.05608 2.40718
O -3.58112 -5.46709 2.88549
O -2.64834 -4.80735 3.14401
O -1.68959 -4.15395 3.21762
O -0.714983 -3.54057 3.14502
O 0.231358 -2.92315 2.93244
O 1.08467 -2.21964 2.6027
O 1.77501 -1.38962 2.11812
O 2.32628 -0.497941 1.50933
O 2.85229 0.41988 0.89404
O 3.38615 1.37524 0.34958
O 3.95368 2.35469 -0.0842436
O 4.55819 3.34041 -0.355973
O 5.1723 4.31039 -0.421521
O 5.75036 5.23854 -0.244459
O 6.24628 6.09824 0.187616
O 6.59028 6.85579 0.859797
O 6.71157 7.48634 1.71597
O 6.54927 7.99105 2.66222
O 6.08791 8.40165 3.58279
100
Atoms. Timestep: 70
O 5.33748 8.6922 4.3943
O 4.53563 8.79638 5.12767
O 3.69423 8.69708 5.79808
O 2.86982 8.33258 6.36494
O 2.0767 7.73929 6.72771
O 1.33468 7.00053 6.83174
O 0.666192 6.19899 6.64774
O 0.0759693 5.42827 6.1862
O -0.433393 4.74294 5.479
O -0.858001 4.17805 4.56312
O -1.18969 3.74716 3.49525
O -1.42542 3.44721 2.33609
O -1.5602 3.25799 1.12611
O -1.62106 3.12552 -0.100169
O -1.64766 3 -1.3292
O -1.6849 2.81919 -2.55467
O -1.70491 2.45637 -3.74678
O -1.66495 1.8941 -4.84634
O -1.57267 1.18835 -5.82957
O -1.50616 0.345409 -6.67306
O -1.50934 -0.629708 -7.32689
O -1.57524 -1.70061 -7.76283
O -1.68192 -2.8161 -7.95654
O -1.78797 -3.90871 -7.90675
O -1.85036 -4.92089 -7.6343
O -1.88594 -5.79925 -7.1271
O -1.99483 -6.44042 -6.35751
O -2.27531 -6.73033 -5.43036
O -2.71008 -6.69103 -4.50285
O -3.23185 -6.37594 -3.64172
O -3.81432 -5.85327 -2.85957
O -4.45591 -5.16477 -2.15624
O -5.13637 -4.38365 -1.5251
O -5.81127 -3.56305 -0.944421
O -6.45208 -2.7018 -0.376754
O -7.03278 -1.83288 0.202169
O -7.51256 -0.959814 0.867864
O -7.7672 -0.119859 1.6294
O -7.68626 0.699259 2.39541
O -7.34185 1.58259 2.98691
O -6.92816 2.56947 3.30712
O -6.49979 3.603 3.3997
O -5.96922 4.59615 3.34612
O -5.29054 5.4858 3.18801
O -4.4399 6.20875 2.96111
O -3.41792 6.70454 2.71949
O -2.26208 6.90051 2.49872
O -1.09747 6.75368 2.36884
O 0.00958572 6.34103 2.38139
O 1.05797 5.78758 2.50622
O 2.05949 5.15628 2.65668
O 3.02691 4.46666 2.78976
O 3.96542 3.73744 2.87085
O 4.87828 2.97456 2.85101
O 5.75904 2.22155 2.63381
O 6.52731 1.49011 2.12494
O 7.07107 0.771032 1.34191
O 7.33028 0.107521 0.402536
O 7.32002 -0.472882 -0.599064
O 7.07144 -0.983294 -1.59851
O 6.6418 -1.47263 -2.53945
O 6.05919 -2.02453 -3.3376
O 5.32467 -2.69706 -3.86442
O 4.41741 -3.36885 -4.1097
O 3.32274 -3.85704 -4.22859
O 2.13488 -4.10522 -4.34027
O 0.929392 -4.19868 -4.4598
O -0.29419 -4.23089 -4.55552
O -1.51724 -4.24204 -4.59997
O -2.74164 -4.28363 -4.59082
O -3.92972 -4.39783 -4.51071
O -5.02883 -4.60522 -4.31099
O -5.99208 -4.90869 -3.95776
O -6.76522 -5.31984 -3.41513
O -7.24355 -5.83888 -2.69054
O -7.31396 -6.36793 -1.8387
O -7.04134 -6.74951 -0.945371
O -6.57553 -6.93431 -0.0382559
O -5.98069 -6.92117 0.867519
O -5.26489 -6.71041 1.70775
O -4.44256 -6.33388 2.41312
O -3.54013 -5.82624 2.92906
O -2.57582 -5.22874 3.23287
O -1.58942 -4.56704 3.33877
O -0.616137 -3.85527 3.29284
O 0.301681 -3.08163 3.11056
O 1.08537 -2.22445 2.73279
O 1.7211 -1.3439 2.17287
O 2.31403 -0.472435 1.54449
O 2.88849 0.425994 0.932556
O 3.45973 1.37033 0.388001
O 4.03059 2.36491 -0.0312448
O 4.60117 3.38695 -0.287064
O 5.15952 4.39961 -0.345319
O 5.67592 5.36755 -0.17894
O 6.11531 6.26284 0.22566
O 6.42793 7.04777 0.865967
O 6.53796 7.68701 1.69636
O 6.40247 8.16026 2.6295
O 5.99349 8.47871 3.56022
100
Atoms. Timestep: 80
O 5.24946 8.70827 4.35572
O 4.58438 8.70404 5.11838
O 3.85781 8.53989 5.80763
O 3.09355 8.1747 6.37508
O 2.31653 7.61095 6.74071
O 1.56309 6.90107 6.832
O 0.853925 6.14373 6.62525
O 0.207492 5.4167 6.13762
O -0.355035 4.77938 5.40301
O -0.822497 4.25045 4.47502
O -1.17487 3.83961 3.40707
O -1.40229 3.54079 2.24511
O -1.52921 3.31792 1.03733
O -1.59709 3.12995 -0.192367
O -1.64501 2.9432 -1.42596
O -1.71451 2.74494 -2.65609
O -1.82479 2.48124 -3.85992
O -1.90087 2.01599 -4.99227
O -1.89103 1.30602 -5.98883
O -1.82652 0.422974 -6.79942
O -1.77511 -0.56964 -7.41174
O -1.76919 -1.62259 -7.81024
O -1.78854 -2.67892 -8.00134
O -1.80405 -3.71445 -7.99621
O -1.79796 -4.71683 -7.75844
O -1.81205 -5.59429 -7.22816
O -1.96317 -6.21537 -6.43279
O -2.28624 -6.51464 -5.5064
O -2.7293 -6.4895 -4.56161
O -3.24222 -6.1878 -3.67094
O -3.79887 -5.66288 -2.86268
O -4.40323 -4.99167 -2.14979
O -5.05182 -4.25107 -1.51102
O -5.70345 -3.45661 -0.920105
O -6.31334 -2.62848 -0.35624
O -6.85855 -1.74572 0.199655
O -7.31823 -0.845532 0.774017
O -7.65561 0.0437883 1.44339
O -7.78331 0.899418 2.2078
O -7.63573 1.77453 2.88742
O -7.25604 2.73998 3.25566
O -6.74981 3.74203 3.31381
O -6.15174 4.71703 3.2107
O -5.40171 5.5887 3.03754
O -4.46056 6.26949 2.83119
O -3.37965 6.67258 2.61347
O -2.25622 6.74822 2.43933
O -1.13571 6.54443 2.36824
O -0.0433899 6.14642 2.40234
O 1.00104 5.62068 2.48918
O 1.99341 5.00572 2.59715
O 2.95072 4.34311 2.69813
O 3.89092 3.64316 2.74308
O 4.79663 2.90586 2.67521
O 5.64597 2.14765 2.46306
O 6.39982 1.41038 2.04153
O 6.98414 0.703487 1.36926
O 7.31548 0.0151909 0.485602
O 7.37376 -0.621073 -0.517419
O 7.20325 -1.17964 -1.54007
O 6.85238 -1.7342 -2.48689
O 6.29172 -2.36056 -3.2317
O 5.45278 -2.98178 -3.67819
O 4.39482 -3.45865 -3.89229
O 3.27153 -3.76208 -4.0491
O 2.11354 -3.95712 -4.22212
O 0.940462 -4.07321 -4.37774
O -0.245571 -4.13496 -4.46415
O -1.43923 -4.17693 -4.48813
O -2.62811 -4.2503 -4.45889
O -3.78844 -4.40124 -4.37431
O -4.87863 -4.64485 -4.17756
O -5.85086 -4.96761 -3.80261
O -6.63849 -5.37752 -3.23158
O -7.14241 -5.86161 -2.47638
O -7.26927 -6.37263 -1.60373
O -7.00028 -6.78471 -0.709899
O -6.4867 -6.99229 0.154795
O -5.86023 -6.99372 0.965969
O -5.14427 -6.83484 1.72275
O -4.32439 -6.53271 2.38566
O -3.40332 -6.1041 2.90341
O -2.42533 -5.56002 3.23967
O -1.44382 -4.89171 3.38571
O -0.52405 -4.08675 3.3621
O 0.270433 -3.17274 3.14268
O 0.961136 -2.2466 2.72827
O 1.63378 -1.36215 2.19366
O 2.27375 -0.488061 1.61214
O 2.88852 0.403515 1.02674
O 3.48197 1.33887 0.495356
O 4.05738 2.33013 0.0756931
O 4.60792 3.3682 -0.17737
O 5.12177 4.4171 -0.234851
O 5.58448 5.42955 -0.0822388
O 5.96868 6.36836 0.302872
O 6.23043 7.18893 0.912777
O 6.31812 7.84487 1.70966
O 6.17514 8.30794 2.61213
O 5.80174 8.58214 3.5174
100
Atoms. Timestep: 90
O 5.1804 8.76456 4.32542
O 4.65194 8.63562 5.14601
O 4.01269 8.37378 5.85003
O 3.28442 7.98453 6.39409
O 2.51496 7.43707 6.72345
O 1.73937 6.77223 6.77535
O 0.993207 6.06972 6.53111
O 0.304518 5.40794 6.0146
O -0.29718 4.81525 5.26749
O -0.781627 4.31203 4.32821
O -1.12784 3.91211 3.24169
O -1.34872 3.60659 2.06495
O -1.48957 3.3543 0.853915
O -1.58821 3.11904 -0.360517
O -1.68575 2.89995 -1.56649
O -1.79592 2.6592 -2.74944
O -1.91169 2.3777 -3.90015
O -2.04041 1.9898 -4.99582
O -2.1332 1.38138 -5.96855
O -2.133 0.546339 -6.76392
O -2.05648 -0.408557 -7.36754
O -1.96129 -1.39527 -7.79018
O -1.87356 -2.41825 -8.04958
O -1.78453 -3.47093 -8.1078
O -1.72946 -4.48301 -7.88006
O -1.7927 -5.35963 -7.3301
O -2.00303 -5.99853 -6.53357
O -2.34373 -6.33361 -5.59145
O -2.77966 -6.33538 -4.60474
O -3.26813 -6.02868 -3.64713
O -3.79673 -5.47044 -2.78926
O -4.37014 -4.76521 -2.05824
O -4.98098 -4.00927 -1.43664
O -5.60125 -3.24899 -0.868809
O -6.18498 -2.45088 -0.320834
O -6.69017 -1.61489 0.220025
O -7.1065 -0.736103 0.774902
O -7.44889 0.146007 1.35904
O -7.71606 1.04006 1.97075
O -7.79266 1.98754 2.57207
O -7.51638 2.95652 3.01846
O -6.96049 3.90357 3.16021
O -6.25135 4.80387 3.06533
O -5.41237 5.59492 2.89008
O -4.45559 6.17744 2.70515
O -3.41157 6.47857 2.5402
O -2.31075 6.51023 2.43551
O -1.20915 6.33224 2.40448
O -0.12266 5.98265 2.4062
O 0.920611 5.47465 2.44571
O 1.91837 4.86637 2.53005
O 2.88564 4.20677 2.6106
O 3.82715 3.51952 2.62614
O 4.73512 2.81353 2.52072
O 5.55822 2.07542 2.2566
O 6.26299 1.31808 1.84481
O 6.82721 0.585762 1.24656
O 7.1879 -0.0875825 0.457107
O 7.33031 -0.720689 -0.464527
O 7.27554 -1.36196 -1.42424
O 6.96852 -2.04251 -2.29665
O 6.3205 -2.70223 -2.95573
O 5.38404 -3.18064 -3.39187
O 4.33936 -3.44422 -3.69714
O 3.24129 -3.62385 -3.92923
O 2.14085 -3.78996 -4.1093
O 1.0218 -3.93206 -4.23292
O -0.111058 -4.02203 -4.30281
O -1.25949 -4.08267 -4.3254
O -2.42076 -4.16841 -4.32054
O -3.58661 -4.34557 -4.27063
O -4.70689 -4.64299 -4.09118
O -5.70086 -5.03106 -3.7076
O -6.49659 -5.46918 -3.10333
O -7.01111 -5.94658 -2.30479
O -7.1699 -6.41785 -1.38563
O -6.95538 -6.8145 -0.451603
O -6.42226 -7.04078 0.404011
O -5.7087 -7.0615 1.16712
O -4.91865 -6.91756 1.83266
O -4.07342 -6.65952 2.39423
O -3.15921 -6.28496 2.85357
O -2.19937 -5.75338 3.18521
O -1.28706 -5.04718 3.35031
O -0.501095 -4.19117 3.30191
O 0.172893 -3.26612 3.04075
O 0.83935 -2.34682 2.66391
O 1.51517 -1.44676 2.21075
O 2.18947 -0.559722 1.69501
O 2.83345 0.344271 1.15824
O 3.4402 1.28375 0.644789
O 4.02331 2.27481 0.221192
O 4.57357 3.31334 -0.0433118
O 5.06659 4.37536 -0.109626
O 5.48183 5.4182 0.0359903
O 5.80572 6.39245 0.391598
O 6.02022 7.24902 0.956102
O 6.07727 7.93919 1.69967
O 5.9397 8.42545 2.55581
O 5.61904 8.70183 3.44535
100
Atoms. Timestep: 100
O 5.15595 8.84343 4.32095
O 4.71741 8.62617 5.19735
O 4.14056 8.25635 5.93251
O 3.42725 7.77928 6.45648
O 2.63114 7.21495 6.7096
O 1.8292 6.59761 6.68028
O 1.06192 5.97996 6.38225
O 0.356065 5.38708 5.84105
O -0.251741 4.83716 5.08141
O -0.727489 4.34482 4.11559
O -1.05968 3.9394 3.00308
O -1.28966 3.62402 1.82667
O -1.45576 3.36078 0.635865
O -1.60469 3.12109 -0.540901
O -1.74741 2.87345 -1.69039
O -1.88075 2.60546 -2.80948
O -2.00954 2.27664 -3.88379
O -2.14154 1.87606 -4.89772
O -2.28051 1.36829 -5.83343
O -2.36003 0.691639 -6.6217
O -2.31071 -0.140091 -7.25437
O -2.14852 -1.09844 -7.76029
O -1.94268 -2.12863 -8.09821
O -1.76972 -3.18455 -8.18528
O -1.71661 -4.21778 -7.95489
O -1.83644 -5.11251 -7.41429
O -2.09587 -5.77651 -6.62871
O -2.44393 -6.14448 -5.67607
O -2.84982 -6.18344 -4.63974
O -3.29443 -5.87957 -3.61537
O -3.7816 -5.2907 -2.69484
O -4.32844 -4.53453 -1.9518
O -4.92157 -3.74149 -1.33633
O -5.5126 -2.96724 -0.79466
O -6.05851 -2.20758 -0.271558
O -6.53012 -1.42516 0.265727
O -6.9263 -0.613886 0.815462
O -7.27875 0.251861 1.32652
O -7.58378 1.18458 1.77024
O -7.73887 2.1622 2.19111
O -7.60953 3.16048 2.60832
O -7.08671 4.09026 2.88043
O -6.30556 4.86002 2.90901
O -5.43891 5.47891 2.77682
O -4.5005 5.94353 2.61492
O -3.46942 6.20959 2.50834
O -2.39608 6.27456 2.45802
O -1.30026 6.15247 2.41197
O -0.208633 5.82918 2.38134
O 0.844784 5.33605 2.40037
O 1.84588 4.73263 2.45939
O 2.81297 4.07651 2.52205
O 3.76445 3.3997 2.52179
O 4.67256 2.69748 2.38589
O 5.48573 1.97329 2.08274
O 6.14634 1.22751 1.62222
O 6.65136 0.480822 1.03466
O 7.02441 -0.213273 0.314518
O 7.24718 -0.873565 -0.4848
O 7.2406 -1.59134 -1.27099
O 6.88766 -2.33556 -1.98095
O 6.17953 -2.90778 -2.58124
O 5.28035 -3.23229 -3.08988
O 4.28906 -3.40993 -3.50938
O 3.27032 -3.52998 -3.8096
O 2.21567 -3.65055 -3.97884
O 1.15667 -3.78057 -4.05944
O 0.0762476 -3.89295 -4.10447
O -1.03734 -3.97068 -4.14776
O -2.20399 -4.0688 -4.18342
O -3.38722 -4.2651 -4.17046
O -4.52881 -4.62316 -4.01536
O -5.53778 -5.09304 -3.62606
O -6.3225 -5.59167 -2.99142
O -6.82807 -6.06778 -2.15932